# vtk DataFile Version 2.0
mfree iwf
ASCII

DATASET UNSTRUCTURED_GRID
POINTS 8952 float
0.000000 0.000445 0.000000
0.000000 0.000450 0.000000
0.000000 0.000455 0.000000
0.000000 0.000460 0.000000
0.000000 0.000465 0.000000
0.000001 0.000470 0.000000
0.000001 0.000475 0.000000
0.000001 0.000480 0.000000
0.000001 0.000485 0.000000
0.000001 0.000490 0.000000
0.000000 0.000496 0.000000
0.000002 0.000500 0.000000
0.000205 0.000608 0.000000
0.000205 0.000618 0.000000
0.000214 0.000662 0.000000
0.000217 0.000669 0.000000
0.000217 0.000669 0.000000
0.000218 0.000674 0.000000
0.000221 0.000682 0.000000
0.000220 0.000680 0.000000
0.000223 0.000692 0.000000
0.000233 0.000717 0.000000
0.000236 0.000723 0.000000
0.000239 0.000726 0.000000
0.000242 0.000730 0.000000
0.000246 0.000734 0.000000
0.000248 0.000737 0.000000
0.000253 0.000742 0.000000
0.000255 0.000744 0.000000
0.000259 0.000749 0.000000
0.000264 0.000755 0.000000
0.000281 0.000775 0.000000
0.000005 0.000445 0.000000
0.000006 0.000450 0.000000
0.000005 0.000455 0.000000
0.000005 0.000460 0.000000
0.000005 0.000465 0.000000
0.000006 0.000470 0.000000
0.000006 0.000475 0.000000
0.000006 0.000480 0.000000
0.000005 0.000485 0.000000
0.000007 0.000490 0.000000
0.000004 0.000496 0.000000
0.000006 0.000499 0.000000
0.000214 0.000658 0.000000
0.000223 0.000667 0.000000
0.000227 0.000698 0.000000
0.000230 0.000704 0.000000
0.000231 0.000708 0.000000
0.000234 0.000712 0.000000
0.000235 0.000715 0.000000
0.000238 0.000718 0.000000
0.000243 0.000723 0.000000
0.000246 0.000727 0.000000
0.000251 0.000733 0.000000
0.000255 0.000738 0.000000
0.000260 0.000742 0.000000
0.000264 0.000749 0.000000
0.000267 0.000752 0.000000
0.000270 0.000755 0.000000
0.000273 0.000764 0.000000
0.000276 0.000768 0.000000
0.000273 0.000765 0.000000
0.000280 0.000773 0.000000
0.000010 0.000445 0.000000
0.000011 0.000450 0.000000
0.000010 0.000455 0.000000
0.000011 0.000460 0.000000
0.000010 0.000465 0.000000
0.000011 0.000469 0.000000
0.000010 0.000476 0.000000
0.000011 0.000480 0.000000
0.000010 0.000486 0.000000
0.000012 0.000490 0.000000
0.000009 0.000497 0.000000
0.000011 0.000498 0.000000
0.000218 0.000658 0.000000
0.000225 0.000669 0.000000
0.000226 0.000684 0.000000
0.000227 0.000690 0.000000
0.000228 0.000695 0.000000
0.000230 0.000700 0.000000
0.000235 0.000696 0.000000
0.000239 0.000707 0.000000
0.000240 0.000711 0.000000
0.000243 0.000718 0.000000
0.000247 0.000720 0.000000
0.000250 0.000727 0.000000
0.000255 0.000727 0.000000
0.000260 0.000733 0.000000
0.000259 0.000738 0.000000
0.000264 0.000745 0.000000
0.000273 0.000757 0.000000
0.000274 0.000760 0.000000
0.000279 0.000768 0.000000
0.000285 0.000770 0.000000
0.000015 0.000445 0.000000
0.000016 0.000450 0.000000
0.000015 0.000456 0.000000
0.000016 0.000459 0.000000
0.000015 0.000466 0.000000
0.000017 0.000470 0.000000
0.000014 0.000475 0.000000
0.000017 0.000480 0.000000
0.000015 0.000485 0.000000
0.000017 0.000489 0.000000
0.000015 0.000495 0.000000
0.000017 0.000498 0.000000
0.000026 0.000500 0.000000
0.000225 0.000673 0.000000
0.000228 0.000686 0.000000
0.000232 0.000687 0.000000
0.000237 0.000701 0.000000
0.000233 0.000705 0.000000
0.000245 0.000707 0.000000
0.000244 0.000712 0.000000
0.000251 0.000715 0.000000
0.000250 0.000723 0.000000
0.000260 0.000727 0.000000
0.000255 0.000732 0.000000
0.000264 0.000737 0.000000
0.000267 0.000741 0.000000
0.000270 0.000746 0.000000
0.000271 0.000749 0.000000
0.000275 0.000752 0.000000
0.000280 0.000758 0.000000
0.000281 0.000763 0.000000
0.000288 0.000768 0.000000
0.000020 0.000445 0.000000
0.000021 0.000450 0.000000
0.000020 0.000456 0.000000
0.000022 0.000461 0.000000
0.000019 0.000465 0.000000
0.000022 0.000468 0.000000
0.000020 0.000475 0.000000
0.000022 0.000479 0.000000
0.000020 0.000486 0.000000
0.000022 0.000491 0.000000
0.000021 0.000497 0.000000
0.000022 0.000499 0.000000
0.000040 0.000500 0.000000
0.000232 0.000672 0.000000
0.000231 0.000679 0.000000
0.000235 0.000683 0.000000
0.000233 0.000693 0.000000
0.000240 0.000696 0.000000
0.000241 0.000702 0.000000
0.000247 0.000714 0.000000
0.000249 0.000708 0.000000
0.000254 0.000719 0.000000
0.000261 0.000718 0.000000
0.000267 0.000726 0.000000
0.000266 0.000733 0.000000
0.000270 0.000736 0.000000
0.000273 0.000741 0.000000
0.000280 0.000748 0.000000
0.000280 0.000753 0.000000
0.000286 0.000758 0.000000
0.000286 0.000763 0.000000
0.000291 0.000765 0.000000
0.000025 0.000445 0.000000
0.000026 0.000450 0.000000
0.000026 0.000455 0.000000
0.000025 0.000458 0.000000
0.000025 0.000466 0.000000
0.000026 0.000471 0.000000
0.000024 0.000476 0.000000
0.000027 0.000480 0.000000
0.000024 0.000485 0.000000
0.000026 0.000489 0.000000
0.000027 0.000493 0.000000
0.000028 0.000500 0.000000
0.000208 0.000635 0.000000
0.000228 0.000675 0.000000
0.000227 0.000679 0.000000
0.000237 0.000689 0.000000
0.000242 0.000692 0.000000
0.000244 0.000699 0.000000
0.000254 0.000700 0.000000
0.000248 0.000702 0.000000
0.000254 0.000711 0.000000
0.000257 0.000716 0.000000
0.000257 0.000723 0.000000
0.000263 0.000723 0.000000
0.000265 0.000730 0.000000
0.000274 0.000737 0.000000
0.000276 0.000745 0.000000
0.000280 0.000741 0.000000
0.000284 0.000754 0.000000
0.000285 0.000749 0.000000
0.000290 0.000759 0.000000
0.000295 0.000762 0.000000
0.000030 0.000445 0.000000
0.000031 0.000450 0.000000
0.000030 0.000458 0.000000
0.000033 0.000461 0.000000
0.000029 0.000465 0.000000
0.000031 0.000469 0.000000
0.000031 0.000473 0.000000
0.000031 0.000477 0.000000
0.000031 0.000485 0.000000
0.000032 0.000492 0.000000
0.000034 0.000497 0.000000
0.000031 0.000499 0.000000
0.000049 0.000500 0.000000
0.000229 0.000664 0.000000
0.000239 0.000679 0.000000
0.000239 0.000685 0.000000
0.000243 0.000687 0.000000
0.000246 0.000694 0.000000
0.000252 0.000705 0.000000
0.000257 0.000708 0.000000
0.000260 0.000706 0.000000
0.000266 0.000716 0.000000
0.000266 0.000721 0.000000
0.000272 0.000729 0.000000
0.000277 0.000729 0.000000
0.000275 0.000733 0.000000
0.000280 0.000736 0.000000
0.000282 0.000745 0.000000
0.000291 0.000748 0.000000
0.000290 0.000753 0.000000
0.000294 0.000756 0.000000
0.000298 0.000759 0.000000
0.000035 0.000445 0.000000
0.000035 0.000450 0.000000
0.000038 0.000454 0.000000
0.000034 0.000456 0.000000
0.000035 0.000465 0.000000
0.000037 0.000471 0.000000
0.000033 0.000479 0.000000
0.000040 0.000479 0.000000
0.000035 0.000484 0.000000
0.000035 0.000489 0.000000
0.000038 0.000491 0.000000
0.000036 0.000498 0.000000
0.000205 0.000600 0.000000
0.000207 0.000634 0.000000
0.000238 0.000671 0.000000
0.000244 0.000681 0.000000
0.000250 0.000692 0.000000
0.000252 0.000688 0.000000
0.000250 0.000697 0.000000
0.000257 0.000700 0.000000
0.000261 0.000711 0.000000
0.000266 0.000709 0.000000
0.000270 0.000719 0.000000
0.000275 0.000721 0.000000
0.000273 0.000725 0.000000
0.000285 0.000734 0.000000
0.000285 0.000739 0.000000
0.000289 0.000740 0.000000
0.000289 0.000745 0.000000
0.000295 0.000748 0.000000
0.000298 0.000753 0.000000
0.000302 0.000756 0.000000
0.000040 0.000445 0.000000
0.000041 0.000450 0.000000
0.000038 0.000460 0.000000
0.000042 0.000457 0.000000
0.000041 0.000465 0.000000
0.000040 0.000470 0.000000
0.000043 0.000475 0.000000
0.000038 0.000476 0.000000
0.000042 0.000487 0.000000
0.000043 0.000492 0.000000
0.000042 0.000497 0.000000
0.000045 0.000498 0.000000
0.000205 0.000531 0.000000
0.000224 0.000663 0.000000
0.000235 0.000668 0.000000
0.000249 0.000674 0.000000
0.000248 0.000687 0.000000
0.000254 0.000693 0.000000
0.000260 0.000696 0.000000
0.000261 0.000702 0.000000
0.000266 0.000705 0.000000
0.000268 0.000713 0.000000
0.000273 0.000711 0.000000
0.000279 0.000720 0.000000
0.000280 0.000726 0.000000
0.000285 0.000728 0.000000
0.000282 0.000731 0.000000
0.000290 0.000736 0.000000
0.000294 0.000741 0.000000
0.000299 0.000746 0.000000
0.000302 0.000750 0.000000
0.000305 0.000753 0.000000
0.000045 0.000445 0.000000
0.000046 0.000450 0.000000
0.000045 0.000455 0.000000
0.000046 0.000461 0.000000
0.000045 0.000465 0.000000
0.000045 0.000470 0.000000
0.000046 0.000478 0.000000
0.000041 0.000483 0.000000
0.000051 0.000485 0.000000
0.000046 0.000483 0.000000
0.000048 0.000493 0.000000
0.000051 0.000498 0.000000
0.000205 0.000539 0.000000
0.000214 0.000655 0.000000
0.000235 0.000677 0.000000
0.000249 0.000681 0.000000
0.000252 0.000682 0.000000
0.000258 0.000690 0.000000
0.000265 0.000697 0.000000
0.000267 0.000701 0.000000
0.000272 0.000707 0.000000
0.000277 0.000711 0.000000
0.000276 0.000715 0.000000
0.000284 0.000723 0.000000
0.000281 0.000716 0.000000
0.000290 0.000728 0.000000
0.000293 0.000732 0.000000
0.000295 0.000736 0.000000
0.000299 0.000739 0.000000
0.000302 0.000743 0.000000
0.000305 0.000747 0.000000
0.000309 0.000750 0.000000
0.000050 0.000445 0.000000
0.000051 0.000450 0.000000
0.000050 0.000456 0.000000
0.000051 0.000460 0.000000
0.000050 0.000465 0.000000
0.000052 0.000471 0.000000
0.000050 0.000473 0.000000
0.000051 0.000478 0.000000
0.000048 0.000488 0.000000
0.000053 0.000491 0.000000
0.000058 0.000492 0.000000
0.000054 0.000498 0.000000
0.000205 0.000569 0.000000
0.000217 0.000650 0.000000
0.000225 0.000659 0.000000
0.000245 0.000676 0.000000
0.000258 0.000681 0.000000
0.000258 0.000686 0.000000
0.000266 0.000689 0.000000
0.000263 0.000692 0.000000
0.000276 0.000700 0.000000
0.000271 0.000701 0.000000
0.000281 0.000708 0.000000
0.000287 0.000714 0.000000
0.000285 0.000719 0.000000
0.000290 0.000723 0.000000
0.000294 0.000727 0.000000
0.000298 0.000730 0.000000
0.000301 0.000735 0.000000
0.000306 0.000739 0.000000
0.000309 0.000743 0.000000
0.000313 0.000747 0.000000
0.000055 0.000445 0.000000
0.000056 0.000450 0.000000
0.000055 0.000455 0.000000
0.000056 0.000461 0.000000
0.000055 0.000464 0.000000
0.000056 0.000469 0.000000
0.000056 0.000477 0.000000
0.000059 0.000482 0.000000
0.000054 0.000483 0.000000
0.000057 0.000487 0.000000
0.000056 0.000497 0.000000
0.000060 0.000497 0.000000
0.000205 0.000580 0.000000
0.000212 0.000652 0.000000
0.000221 0.000657 0.000000
[...]
POINT_DATA 8952
SCALARS density float 1
LOOKUP_TABLE default
4427.253024
4429.098456
4426.340073
4422.908595
4421.920383
4428.706243
4441.398011
4435.166266
4443.881204
4425.693082
4433.279274
4397.332073
4440.817881
4441.169307
4430.311867
4433.872516
4443.690298
4436.856724
4436.940870
4442.914266
4433.813577
4426.997798
4408.193274
4441.995102
4426.732495
4422.647267
4449.210695
4433.891121
4420.945992
4443.247381
4444.244336
4450.498351
4427.864437
4428.743443
4423.990977
4433.967706
4438.616537
4415.056503
4416.089659
4418.062758
4402.549622
4416.884264
4444.954419
4399.835424
4416.194423
4366.200633
4398.256194
4430.437711
4407.491800
4409.973239
4429.070593
4435.796778
4424.549675
4422.691349
4412.579281
4404.142314
4437.495264
4396.786302
4405.540226
4407.477220
4415.058544
4410.017491
4418.526684
4433.733655
4422.597268
4428.405066
4436.908285
4412.119397
4435.661698
4426.745199
4455.279791
4397.550952
4483.351507
4365.858805
4476.090655
4408.029451
4420.385626
4491.008809
4439.472056
4394.470641
4411.811737
4395.652613
4464.063915
4394.069494
4448.508978
4415.209576
4415.463789
4430.410720
4404.844166
4418.306478
4441.594260
4399.732964
4446.258163
4436.078857
4441.543297
4403.479714
4432.301346
4446.499326
4447.616529
4442.055049
4436.202870
4397.315950
4453.662963
4368.925940
4472.843260
4378.313541
4519.131437
4396.580844
4437.491202
4375.905247
4453.984896
4430.677792
4405.658269
4462.587856
4427.264280
4436.366912
4427.663673
4419.985607
4420.147735
4446.834589
4423.918701
4452.855562
4464.065078
4473.540030
4434.762461
4380.248955
4502.444706
4447.471943
4435.032675
4422.334175
4432.266307
4410.663292
4456.309458
4439.904530
4450.610777
4445.079746
4469.717199
4378.735444
4472.888273
4440.299740
4421.284870
4390.454623
4453.824828
4391.007911
4513.412020
4401.539517
4430.708039
4457.971890
4423.339599
4430.721070
4421.212358
4423.206470
4427.180538
4413.298125
4391.477526
4454.459748
4430.052118
4440.853627
4331.573629
4452.115316
4426.781974
4436.318853
4433.859813
4446.794884
4453.180742
4397.954000
4449.169660
4377.050089
4425.512772
4460.116490
4408.138114
4427.658458
4429.228093
4485.464805
4361.960553
4336.609578
4467.978761
4445.341493
4446.807208
4439.921965
4431.672487
4444.518848
4441.093380
4432.346980
4462.306610
4454.322798
4361.951524
4483.313290
4460.973021
4391.941554
4445.038952
4423.088345
4438.922222
4426.488189
4410.183404
4445.896848
4414.720690
4449.110486
4431.780864
4455.397443
4452.676681
4399.045432
4463.854311
4424.543386
4421.817958
4424.441083
4443.345359
4486.463599
4432.417700
4412.727216
4419.548934
4448.883827
4421.021193
4436.066535
4434.300279
4403.360560
4423.424642
4444.467924
4388.930505
4434.482760
4468.798120
4397.113202
4409.114888
4435.802336
4436.967449
4422.941036
4424.811800
4421.960425
4427.176825
4414.342745
4434.455655
4437.452267
4408.410161
4432.383286
4412.667742
4447.503479
4488.914725
4429.085264
4451.049493
4377.070142
4470.310869
4429.321899
4401.633796
4450.568649
4417.265123
4431.634819
4404.371880
4461.888400
4422.747786
4419.432160
4429.126798
4437.959740
4428.025376
4448.085742
4417.785572
4425.273597
4422.652741
4433.545310
4435.483050
4398.557415
4434.547191
4438.222274
4435.552789
4413.697342
4449.913285
4434.627700
4433.872606
4426.549713
4718.150705
4422.575527
4427.126701
4439.167477
4390.355623
4428.517135
4434.596786
4424.309438
4437.984865
4438.367077
4437.249495
4428.493240
4415.742654
4444.701146
4441.830245
4454.337341
4391.268859
4424.870248
4416.173249
4436.519474
4433.465420
4412.772046
4428.354459
4425.266278
4443.645299
4413.453048
4435.653599
4437.890907
4469.868837
4392.676712
4469.368609
4443.989474
4488.465671
4421.596545
4413.578438
4468.966356
4449.107325
4429.838910
4413.123090
4454.537126
4413.842999
4441.115597
4429.914240
4416.842694
4395.102122
4410.285277
4427.533524
4426.062726
4445.100176
4452.074970
4421.417556
4420.350138
4435.496660
4422.085768
4440.067017
4437.195562
4394.345026
4448.924260
4449.191684
4389.699516
4387.655747
4404.828478
4547.885659
4409.580531
4541.880059
4467.184354
4442.494855
4449.809851
4436.017152
4431.170491
4442.297071
4454.282888
4452.795981
4442.944903
4424.181253
4421.255084
4465.361154
4439.463815
4453.496669
4450.843896
4424.894652
4421.812416
4425.422093
4427.531928
4428.668266
4425.509302
4412.686553
4422.219296
4448.586216
4413.427932
4408.006643
4432.248460
4480.578988
4371.887183
4416.003729
4387.635005
4595.577271
4419.832364
4451.271777
4434.844881
4443.403435
4427.172931
4450.411877
4430.538873
4443.028076
4436.142949
4462.872121
4415.831594
4421.804660
4422.531410
4419.670260
4440.531363
4436.971732
4426.783225
4430.939299
4418.709107
4428.326405
4406.275900
4436.293797
4406.933912
4419.915668
4431.314449
4441.786412
4419.456664
4455.589005
4406.361080
4449.371648
4439.616171
4416.711729
4529.462406
4448.652164
4391.666412
4376.199748
4439.370611
4415.440843
4459.941687
4413.159443
4439.814609
4433.464556
4448.800409
4419.300127
4445.445018
4445.608846
4447.120729
4419.451374
4429.268284
4421.686362
4425.906683
4434.958580
4422.248450
4431.366340
4428.006378
4440.291885
4415.365674
4430.213280
4418.019819
4456.108782
4384.037520
4434.223074
4436.511940
4527.944973
4433.333314
4428.077989
4422.932011
4477.425506
4435.139378
4444.366263
4435.354746
4419.089734
4434.801850
4428.794768
4453.183710
4408.368058
4414.524371
4418.293822
4430.930655
4444.036006
4424.475837
4428.542806
4422.867958
4425.716905
4431.078962
4422.737888
4414.011843
4426.957204
4419.804819
4442.088195
4414.038338
4425.466128
4434.085107
4441.406951
4447.508084
4588.301309
4408.361417
4413.663714
4448.898034
4459.577386
4398.453876
4448.359060
4458.116814
4431.536080
4418.804476
4420.833522
4423.711241
4419.774152
4461.665185
4418.797971
4430.697449
4435.831848
4408.182936
4434.216151
4421.814781
4439.979622
4420.991124
4420.793005
4439.380662
4426.084080
4419.514289
4422.072811
4429.074991
4438.340952
4421.985495
4416.302233
4451.078446
4429.033612
4418.045196
4423.003173
4371.593283
4436.562205
4478.637850
4434.341898
4435.473083
4399.662232
4466.246432
4442.055762
4431.935979
4460.865075
4448.383324
4439.020111
4430.913493
4425.317784
4439.567276
4417.758676
4423.692697
4424.966494
4418.075594
4428.601884
4414.152446
4421.926300
4440.132148
4421.391717
4425.131503
4403.171704
4491.081756
4359.718677
4432.432216
4433.941766
4388.510957
4535.159894
4423.475336
4440.970612
4399.910925
4407.437163
4413.441295
4439.139428
4471.437369
4416.751943
4451.855156
4443.187445
4449.535747
4435.012072
4434.018016
4418.987978
4442.492386
4414.410967
4427.757193
4444.280142
4420.369161
4429.542804
4438.109202
4435.400981
4396.492202
4431.471227
4436.689189
4421.607280
4459.341712
4455.633797
4469.765277
4510.008062
4514.661468
4475.943195
4431.049374
4422.489190
4400.893809
4450.817687
4448.419098
4425.945092
4430.837123
4446.097148
4410.073077
4422.562480
4422.263007
4433.886807
4419.616752
4428.293965
4431.378596
4427.315452
4427.854749
4419.086639
4424.058444
4443.029774
4410.828941
4416.824143
4439.600458
4424.357510
4448.658510
4446.350975
4403.684515
4403.689536
4425.673076
4410.590642
4415.129528
4394.484797
4393.755582
4424.077170
4404.553044
4459.141358
4451.753578
4434.931577
4407.052941
4443.019583
4423.212429
4465.962381
4423.258732
4451.111444
4429.758220
4441.343818
4419.499219
4423.732217
4419.118684
4441.718017
4426.689924
4426.185133
4449.481435
4436.231559
4411.516503
4425.121667
4423.336596
4415.706838
4439.476692
4442.122953
4430.947286
4404.238845
4365.011723
4536.789759
4503.704602
4425.399649
4442.917787
4418.234792
4375.958210
4485.791849
4423.256828
4433.318239
4419.435014
4429.778969
4438.835527
4436.984651
4418.082960
4423.299648
4433.311367
4424.569274
4425.354279
4413.770008
4416.955662
4432.760503
4406.518877
4435.453873
4411.375682
4416.232484
4380.360336
4442.430951
4489.473276
4379.204534
4579.730084
4392.514943
4444.121367
4431.138971
4507.818602
4418.118655
4440.193693
4393.270155
4438.381634
4450.046250
4466.252181
4426.328959
4431.578149
4430.407630
4451.863035
4425.379567
4463.762731
4448.534905
4420.479121
4429.043821
4417.419731
4450.140724
4440.133436
4418.699776
4426.155128
4444.701075
4410.055742
4448.778650
4417.819950
4453.706771
4382.786316
4425.123457
4432.218946
4506.681839
4400.893943
4438.502718
4399.096117
4401.282813
4454.370764
4465.237792
4456.351158
4394.377866
4354.630801
4425.329751
4459.312598
4425.734996
4417.008523
4443.376208
4419.883960
4433.573453
4413.483387
4433.897991
4427.279778
4417.380930
4426.780352
4434.712225
4432.368770
4419.261229
4398.396628
4441.653355
4410.648679
4452.942205
4377.024944
4357.294826
4500.115082
4423.131861
4432.148984
4455.163238
4425.276513
4439.688151
4425.986818
4410.186325
4408.550526
4427.657105
4417.100678
4413.220435
4460.201719
4462.266155
4406.201915
4457.926648
4434.780244
4462.956647
4427.077249
4415.622085
4427.167743
4445.996285
4440.269297
4406.905020
4415.808888
4426.231024
4430.769982
4435.886099
4431.017872
4474.048440
4450.638946
4438.283414
4424.924915
4438.468387
4484.495250
4417.694274
4390.294572
4463.934064
4470.021762
4436.154766
4408.358831
4443.260087
4441.197361
4379.376352
4386.496771
4448.783332
4465.378275
4432.536947
4423.264754
4425.501621
4416.605971
4435.161736
4423.409409
4413.517311
4427.725152
4427.190135
4427.849229
4428.547486
4428.676578
4429.171072
4429.272556
4429.722320
4429.840708
4430.233375
4430.227191
4430.441972
4430.225915
4429.647015
4417.814877
4426.150736
4426.098199
4427.162140
4427.827246
4428.174374
4428.839168
4428.968661
4429.471616
4429.423938
4429.925001
4430.049081
4430.155829
4430.212098
4431.087625
4421.176123
4426.132309
4425.706951
4426.725334
4427.617165
4427.716691
4428.430053
4428.430229
4429.100111
4429.152048
4429.655437
4429.349674
4429.491080
4430.211242
4429.384621
4422.757339
4426.608197
4426.175569
4427.056105
4427.490367
4427.890288
4428.376122
4428.577935
4428.902180
4428.875858
4429.105723
4429.199463
4429.605226
4428.942116
4430.028861
4424.561540
4426.858152
4426.633109
4426.942543
4427.524993
4427.612685
4428.118556
4428.145319
4428.660753
4428.637088
4429.229641
4428.528604
4429.438216
4427.912066
4429.784253
4425.155781
4427.206225
4427.055824
4427.072238
4427.902652
4427.534054
4428.516676
4428.015811
4428.910266
4428.202514
4428.981476
4428.446770
4429.136955
4427.699415
4428.779848
4425.778186
4427.464491
4427.199819
4427.272567
4427.676925
4427.566501
4428.101030
4427.913645
4428.452910
4428.379888
4428.830537
4428.465634
4428.387676
4427.770491
4428.764279
4426.222288
4427.741472
4427.406553
4427.496486
4427.825049
4427.884569
4428.092787
4428.272862
4428.369210
4428.399465
4428.494227
4428.436336
4428.882315
4427.539627
4427.892897
4426.365286
4427.904432
4427.438729
4427.584658
4427.737640
4427.613129
4428.058086
4427.838987
4428.307038
4428.267626
4428.815883
4428.518904
4429.000813
4428.478785
4428.937272
4426.807400
4428.066848
4427.572267
4427.751120
4427.839165
4427.982872
4428.024657
4428.169583
4428.305447
4428.294186
4428.478073
4428.808498
4429.344728
4428.946453
4430.463203
4426.680442
4428.099013
4427.606274
4427.731836
4427.699878
4427.723360
4427.842779
4427.877951
4427.999530
4428.248529
4428.634204
4428.580669
4429.551051
4429.643852
4430.575264
4426.925552
4428.198993
4427.660891
4427.756865
4427.967080
4427.773924
4428.087442
4427.835143
4428.271282
4427.945148
4428.318636
4428.492966
4429.072591
4429.519459
4430.524213
4427.076924
4428.031270
4427.867939
4427.641951
4427.741990
4427.646898
4427.714060
4427.748782
4427.730438
4427.962450
4428.060903
4428.050216
4428.649978
4428.807378
4430.081185
4441.941069
4434.978972
4408.510795
4428.113071
4441.087107
4446.340955
4442.239102
4438.308990
4422.400733
4433.284304
4411.339647
4476.795985
4429.804929
4436.515758
4430.812565
4410.276412
4427.116382
4428.140985
4427.789322
4427.683432
4427.942046
4427.649067
4427.942317
4427.626936
4427.940639
4427.482868
4427.721620
4427.549443
4427.826702
4427.549463
4428.699796
4425.034764
4446.763447
4439.067664
4433.899967
4465.412393
4436.273241
4413.073346
4443.482076
4468.463111
4428.181751
4397.105515
4447.555255
4450.039654
4461.896823
4408.945942
4407.485998
4426.878828
4428.005503
4427.864189
4427.482352
4427.847094
4427.278198
4427.843432
4427.079812
4427.755862
4426.948385
4427.858328
4426.674511
4427.531337
4426.458232
4427.678995
4420.799938
4434.685153
4419.203959
4414.528562
4418.305328
4446.838414
4407.114067
4482.088416
4446.658365
4451.908523
4422.581274
4389.930411
4428.650860
4452.519105
4383.344837
4436.803084
4426.996046
4428.004993
4427.922285
4427.404354
4428.011956
4427.396166
4427.785410
4427.361332
4427.548326
4427.098105
4427.187342
4426.591461
4426.806864
4424.659163
4427.215663
4430.090670
4436.056043
4419.399722
4383.430686
4490.011834
4453.555089
4477.932055
4438.145172
4422.850996
4420.573915
4402.783925
4447.999169
4396.609104
4432.065327
4439.695679
4409.952115
4426.741140
4428.086465
4427.636334
4427.615451
4427.598937
4427.251857
4427.569154
4426.944532
4427.287009
4426.875068
4426.760614
4425.837082
4426.090925
4423.850862
4423.889847
4443.658722
4436.064376
4441.160439
4451.876783
4488.535617
4428.689934
4482.558665
4498.943373
4451.525639
4453.426004
4410.982228
4464.736138
4434.659038
4362.652204
4421.351066
4409.057291
4426.717161
4428.139031
4427.623797
4427.592373
4427.582040
4427.575534
4427.358550
4427.314693
4427.352091
4426.430973
4427.019390
4425.533962
4425.822224
4423.199408
4420.742468
4412.548739
4411.033254
4442.454711
4459.846266
4473.781007
4377.263603
4522.958868
4504.385459
4448.215316
4427.026744
4454.842821
4446.037191
4403.484957
4400.992589
4423.096814
4424.744233
4426.862327
4427.973605
4427.709962
4427.475259
4427.571907
4427.189346
4427.365261
4427.155401
4426.708601
4427.380756
4425.676983
4426.551558
4424.706255
4424.768580
4423.475054
4456.335579
4425.466683
4418.546740
4400.093693
4354.960300
4436.485918
4449.292968
4496.305908
4468.370709
4421.293116
4452.792916
4468.214456
4429.744836
4458.554722
4470.265717
4405.300351
4426.624139
4428.119260
4427.536024
4427.622325
4427.455379
4427.542883
4427.364128
4427.193808
4427.345876
4426.441354
4427.164479
4426.183468
4426.472119
4426.403247
4424.588472
4436.977819
4431.638132
4410.056819
4428.605797
4414.544926
4511.443561
4509.755385
4462.867277
4472.557481
4457.257386
4436.505407
4462.131483
4432.520654
4455.563178
4410.850012
4413.638303
4426.507314
4427.926991
4427.660522
4427.297318
4427.722128
4427.096279
4427.597251
4426.955213
4427.384427
4426.803843
4427.111965
4426.733082
4427.432400
4427.225099
4429.087076
4430.837016
4450.185746
4413.971608
4440.414327
4418.331611
4477.191699
4461.633557
4474.545549
4468.825471
4500.716040
4409.173153
4360.461734
4390.567352
4446.591800
4389.491939
4418.506750
4426.502781
4427.899542
4427.760312
4427.365693
4427.818337
4427.267529
4427.683951
4427.170273
4427.242295
4427.011517
4427.089377
4426.798874
4428.066385
4427.041113
4428.315213
4443.944406
4444.298585
4455.094382
4454.302499
4459.491975
4473.558410
4454.380835
4482.151618
4470.081767
4505.340409
4431.014634
4460.190248
4448.933188
4473.445442
4371.246856
4450.049746
4426.464684
4428.069249
4427.510673
4427.654945
4427.403049
4427.557101
4427.287789
4427.167822
4427.355118
4426.643884
4427.371602
4426.967287
4426.969416
4427.450678
4426.552665
4429.588123
4438.018765
4441.885589
4446.431703
4455.316309
4448.507539
4453.043771
4474.929402
4453.886289
4461.099751
4430.596003
4462.807183
4448.001540
4473.668036
4407.924813
4399.548498
4426.398341
4428.063923
4427.563278
4427.530997
4427.721742
4427.306493
4427.568097
4427.254921
4426.963584
4427.357782
4426.791059
4427.012887
4426.900892
4426.575063
4426.492650
4439.367640
4452.512679
4445.009419
4436.488299
4430.599875
4453.288723
4453.465619
4469.963524
4436.374369
4478.408802
4476.063456
4453.299307
4419.761310
4397.131245
4279.853550
4436.980409
4426.463959
4427.921913
4427.840578
4427.460383
4427.623430
4427.425969
4427.355260
4427.132743
4427.383087
4426.858378
4427.138231
4426.809089
4426.718518
4426.449765
4426.521849
4421.742867
4415.950778
4445.391601
4451.430768
4431.953451
4453.572385
4460.643729
4457.990660
4459.849598
4457.412111
4449.420739
4438.715811
4422.967916
4374.046071
4543.072483
4443.045121
4426.312076
4428.214492
4427.534136
4427.788376
4427.618087
4427.486770
4427.692775
4427.280900
4427.398377
4426.949624
4427.135979
4426.191085
4426.776165
4425.774109
4425.371586
4435.228485
4423.738185
4430.787288
4433.056981
4411.936341
4451.674343
4437.912574
4436.304859
4426.942666
4462.153566
4432.917721
4447.566014
4432.652467
4490.454523
4406.277268
4410.971483
4426.387015
4428.267078
4427.640286
4427.682152
4427.734889
4427.672241
4427.431108
4427.511934
4427.094643
4427.177036
4426.325752
4426.893878
4425.878264
4425.933468
4426.307273
4439.694227
4423.624837
4427.366591
4431.750588
4434.955480
4426.662367
4439.409329
4427.615285
4417.685159
4435.645830
4449.364753
4459.912883
4435.117173
4442.761428
4385.689659
4423.380131
4426.393170
4428.297193
4427.711423
4428.213805
4427.516470
4428.052292
4427.455759
4427.655180
4427.147428
4427.057721
4426.868337
4426.367629
4426.170903
4426.890005
4426.790866
4438.096614
4421.391238
4416.193679
4436.249639
4440.158609
4442.055824
4444.909188
4451.645802
4450.263375
4446.691596
4421.392687
4437.220378
4455.716660
4421.184553
4473.622305
4420.278270
4426.626890
4428.472567
4427.821286
4427.915437
4428.030935
4427.792811
4427.741933
4427.659863
4427.248010
4427.460425
4426.531471
4427.091739
4426.239667
4426.211896
4428.158939
4406.411381
4442.979466
4444.430583
4451.778145
4458.332904
4438.876120
4423.746699
4420.017135
4433.681256
4444.839147
4440.693665
4423.398239
4425.884676
4456.519630
4411.528605
4449.574534
4426.679018
4428.277230
4428.263446
4428.006245
4428.267680
4427.853641
4428.118647
4427.555292
4427.731879
4426.980703
4427.109492
4426.436455
4425.750434
4425.679134
4427.100779
4426.644093
4437.442706
4433.560647
4414.220726
4426.977829
4421.972440
4432.038488
4436.582522
4441.128052
4427.930650
4442.767908
4451.870758
4444.332586
4412.005157
4425.488978
4450.552459
4426.974820
4428.550906
4428.259312
4428.297123
4428.201733
4428.123539
4428.043601
4427.697253
4427.702410
4427.133138
4427.408612
4426.304825
4427.176996
4425.018505
4424.660460
4402.146180
4431.393777
4408.959482
4422.435701
4419.034146
4419.962816
4415.062156
4430.858682
4415.024824
4434.261740
4456.896844
4439.559857
4432.526561
4458.704321
4467.742821
4462.975431
4427.079123
4428.838449
4428.308901
4428.452149
4428.506008
4428.259778
4428.260167
4428.154900
4427.798099
4427.921917
4426.873887
4427.520006
4425.635230
4424.866018
4428.046562
4435.882599
4422.121370
4407.725964
4437.391228
4405.864457
4422.616363
4438.128292
4455.460783
4422.961688
4434.306840
4452.849205
4457.749269
4453.420280
4441.529861
4448.022427
4460.019602
4427.444251
4428.833049
4428.652264
4428.626391
4428.597317
4428.541462
4428.574667
4428.340911
4428.267031
4427.821923
4428.131216
4426.605798
4427.305673
4426.959489
4425.816814
4429.861834
4405.460386
4441.018507
4417.735132
4426.299713
4430.941143
4440.759472
4415.621250
4413.025904
4453.649739
4452.800251
4456.145227
4465.920818
4432.998667
4472.136341
4460.581735
4427.897589
4429.118357
4428.815802
4428.996270
4428.888379
4428.920943
4428.764480
4428.598191
4428.613112
4428.170820
4427.664171
4428.003146
4427.242983
4426.269289
4428.992303
4430.011099
4426.118320
4428.382999
4391.825990
4433.328263
4445.268812
4418.856064
4443.676037
4411.963945
4463.447166
4453.093568
4451.254648
4454.965261
4452.274147
4459.635866
4457.503918
4428.291729
4429.400705
4428.993541
4429.240508
4429.038416
4429.172331
4428.922803
4429.247584
4428.363816
4429.207133
4428.232637
4428.176142
4427.481633
4427.498194
4428.926639
4429.815486
4401.605771
4440.727587
4442.379677
4422.336944
4436.175064
4423.720050
4427.884012
4447.625721
4397.194121
4455.390929
4449.572525
4434.612498
4456.774487
4434.863309
4454.659372