# vtk DataFile Version 2.0
mfree iwf
ASCII

DATASET UNSTRUCTURED_GRID
POINTS 9483 float
0.000000 0.000445 0.000000
0.000000 0.000450 0.000000
0.000000 0.000455 0.000000
0.000000 0.000460 0.000000
0.000000 0.000465 0.000000
0.000000 0.000470 0.000000
0.000000 0.000475 0.000000
0.000000 0.000480 0.000000
0.000000 0.000485 0.000000
0.000001 0.000490 0.000000
-0.000000 0.000496 0.000000
0.000002 0.000500 0.000000
0.000334 0.000719 0.000000
0.000339 0.000727 0.000000
0.000369 0.000762 0.000000
0.000374 0.000766 0.000000
0.000374 0.000766 0.000000
0.000378 0.000770 0.000000
0.000384 0.000775 0.000000
0.000383 0.000774 0.000000
0.000392 0.000783 0.000000
0.000412 0.000801 0.000000
0.000418 0.000803 0.000000
0.000422 0.000805 0.000000
0.000427 0.000807 0.000000
0.000432 0.000809 0.000000
0.000436 0.000810 0.000000
0.000441 0.000812 0.000000
0.000444 0.000813 0.000000
0.000451 0.000815 0.000000
0.000457 0.000818 0.000000
0.000481 0.000828 0.000000
0.000005 0.000445 0.000000
0.000005 0.000450 0.000000
0.000005 0.000455 0.000000
0.000005 0.000460 0.000000
0.000005 0.000465 0.000000
0.000005 0.000470 0.000000
0.000005 0.000475 0.000000
0.000005 0.000480 0.000000
0.000005 0.000485 0.000000
0.000006 0.000489 0.000000
0.000004 0.000496 0.000000
0.000006 0.000499 0.000000
0.000367 0.000758 0.000000
0.000378 0.000761 0.000000
0.000398 0.000786 0.000000
0.000403 0.000790 0.000000
0.000407 0.000793 0.000000
0.000410 0.000795 0.000000
0.000413 0.000797 0.000000
0.000417 0.000798 0.000000
0.000423 0.000800 0.000000
0.000429 0.000802 0.000000
0.000435 0.000805 0.000000
0.000441 0.000807 0.000000
0.000447 0.000808 0.000000
0.000455 0.000813 0.000000
0.000458 0.000814 0.000000
0.000464 0.000815 0.000000
0.000471 0.000822 0.000000
0.000474 0.000824 0.000000
0.000469 0.000822 0.000000
0.000479 0.000826 0.000000
0.000010 0.000445 0.000000
0.000011 0.000450 0.000000
0.000010 0.000455 0.000000
0.000011 0.000460 0.000000
0.000010 0.000465 0.000000
0.000011 0.000469 0.000000
0.000010 0.000475 0.000000
0.000011 0.000480 0.000000
0.000009 0.000486 0.000000
0.000012 0.000490 0.000000
0.000009 0.000497 0.000000
0.000011 0.000498 0.000000
0.000371 0.000757 0.000000
0.000382 0.000761 0.000000
0.000390 0.000775 0.000000
0.000394 0.000780 0.000000
0.000397 0.000783 0.000000
0.000401 0.000787 0.000000
0.000404 0.000780 0.000000
0.000412 0.000787 0.000000
0.000413 0.000791 0.000000
0.000420 0.000794 0.000000
0.000425 0.000796 0.000000
0.000431 0.000801 0.000000
0.000436 0.000797 0.000000
0.000441 0.000799 0.000000
0.000445 0.000805 0.000000
0.000452 0.000809 0.000000
0.000467 0.000816 0.000000
0.000469 0.000818 0.000000
0.000477 0.000822 0.000000
0.000483 0.000820 0.000000
0.000015 0.000445 0.000000
0.000016 0.000450 0.000000
0.000015 0.000456 0.000000
0.000016 0.000459 0.000000
0.000015 0.000466 0.000000
0.000016 0.000470 0.000000
0.000014 0.000475 0.000000
0.000017 0.000480 0.000000
0.000014 0.000485 0.000000
0.000017 0.000488 0.000000
0.000014 0.000495 0.000000
0.000017 0.000498 0.000000
0.000025 0.000500 0.000000
0.000383 0.000765 0.000000
0.000392 0.000775 0.000000
0.000397 0.000773 0.000000
0.000406 0.000783 0.000000
0.000406 0.000790 0.000000
0.000416 0.000787 0.000000
0.000420 0.000789 0.000000
0.000426 0.000788 0.000000
0.000430 0.000795 0.000000
0.000443 0.000795 0.000000
0.000438 0.000803 0.000000
0.000449 0.000803 0.000000
0.000453 0.000804 0.000000
0.000458 0.000807 0.000000
0.000460 0.000808 0.000000
0.000466 0.000810 0.000000
0.000472 0.000813 0.000000
0.000476 0.000816 0.000000
0.000484 0.000817 0.000000
0.000020 0.000445 0.000000
0.000021 0.000450 0.000000
0.000020 0.000456 0.000000
0.000021 0.000460 0.000000
0.000019 0.000465 0.000000
0.000022 0.000468 0.000000
0.000019 0.000475 0.000000
0.000022 0.000479 0.000000
0.000020 0.000487 0.000000
0.000021 0.000491 0.000000
0.000021 0.000497 0.000000
0.000022 0.000499 0.000000
0.000039 0.000500 0.000000
0.000388 0.000761 0.000000
0.000391 0.000767 0.000000
0.000396 0.000769 0.000000
0.000398 0.000778 0.000000
0.000408 0.000778 0.000000
0.000416 0.000782 0.000000
0.000425 0.000792 0.000000
0.000421 0.000784 0.000000
0.000433 0.000791 0.000000
0.000437 0.000787 0.000000
0.000445 0.000792 0.000000
0.000448 0.000794 0.000000
0.000455 0.000800 0.000000
0.000460 0.000800 0.000000
0.000469 0.000804 0.000000
0.000469 0.000809 0.000000
0.000478 0.000810 0.000000
0.000480 0.000815 0.000000
0.000486 0.000814 0.000000
0.000025 0.000445 0.000000
0.000025 0.000450 0.000000
0.000026 0.000454 0.000000
0.000025 0.000459 0.000000
0.000025 0.000467 0.000000
0.000026 0.000471 0.000000
0.000023 0.000476 0.000000
0.000027 0.000481 0.000000
0.000024 0.000485 0.000000
0.000026 0.000488 0.000000
0.000027 0.000492 0.000000
0.000027 0.000500 0.000000
0.000351 0.000742 0.000000
0.000387 0.000766 0.000000
0.000388 0.000770 0.000000
0.000403 0.000775 0.000000
0.000407 0.000773 0.000000
0.000411 0.000781 0.000000
0.000421 0.000779 0.000000
0.000415 0.000777 0.000000
0.000426 0.000783 0.000000
0.000431 0.000787 0.000000
0.000435 0.000794 0.000000
0.000439 0.000791 0.000000
0.000446 0.000799 0.000000
0.000454 0.000796 0.000000
0.000464 0.000804 0.000000
0.000464 0.000799 0.000000
0.000475 0.000808 0.000000
0.000473 0.000802 0.000000
0.000482 0.000808 0.000000
0.000488 0.000809 0.000000
0.000030 0.000445 0.000000
0.000030 0.000450 0.000000
0.000029 0.000458 0.000000
0.000033 0.000461 0.000000
0.000029 0.000464 0.000000
0.000030 0.000468 0.000000
0.000031 0.000472 0.000000
0.000030 0.000477 0.000000
0.000031 0.000486 0.000000
0.000031 0.000492 0.000000
0.000033 0.000497 0.000000
0.000031 0.000499 0.000000
0.000049 0.000500 0.000000
0.000381 0.000756 0.000000
0.000399 0.000764 0.000000
0.000402 0.000770 0.000000
0.000405 0.000768 0.000000
0.000412 0.000774 0.000000
0.000424 0.000777 0.000000
0.000431 0.000783 0.000000
0.000428 0.000778 0.000000
0.000438 0.000783 0.000000
0.000444 0.000786 0.000000
0.000454 0.000793 0.000000
0.000453 0.000789 0.000000
0.000458 0.000794 0.000000
0.000463 0.000793 0.000000
0.000466 0.000798 0.000000
0.000478 0.000798 0.000000
0.000478 0.000803 0.000000
0.000484 0.000804 0.000000
0.000489 0.000805 0.000000
0.000035 0.000445 0.000000
0.000035 0.000450 0.000000
0.000037 0.000454 0.000000
0.000034 0.000456 0.000000
0.000035 0.000466 0.000000
0.000037 0.000472 0.000000
0.000032 0.000479 0.000000
0.000042 0.000479 0.000000
0.000035 0.000483 0.000000
0.000034 0.000488 0.000000
0.000038 0.000491 0.000000
0.000036 0.000498 0.000000
0.000330 0.000707 0.000000
0.000349 0.000740 0.000000
0.000394 0.000758 0.000000
0.000404 0.000763 0.000000
0.000414 0.000769 0.000000
0.000415 0.000764 0.000000
0.000419 0.000774 0.000000
0.000425 0.000772 0.000000
0.000434 0.000779 0.000000
0.000434 0.000775 0.000000
0.000444 0.000778 0.000000
0.000449 0.000786 0.000000
0.000452 0.000784 0.000000
0.000464 0.000789 0.000000
0.000470 0.000795 0.000000
0.000473 0.000790 0.000000
0.000474 0.000798 0.000000
0.000482 0.000798 0.000000
0.000486 0.000800 0.000000
0.000491 0.000800 0.000000
0.000040 0.000445 0.000000
0.000040 0.000450 0.000000
0.000038 0.000461 0.000000
0.000042 0.000457 0.000000
0.000041 0.000463 0.000000
0.000039 0.000468 0.000000
0.000042 0.000473 0.000000
0.000037 0.000477 0.000000
0.000041 0.000487 0.000000
0.000043 0.000491 0.000000
0.000042 0.000497 0.000000
0.000045 0.000498 0.000000
0.000311 0.000570 0.000000
0.000376 0.000757 0.000000
0.000388 0.000756 0.000000
0.000405 0.000755 0.000000
0.000410 0.000767 0.000000
0.000418 0.000769 0.000000
0.000423 0.000768 0.000000
0.000430 0.000773 0.000000
0.000439 0.000776 0.000000
0.000443 0.000783 0.000000
0.000443 0.000774 0.000000
0.000454 0.000779 0.000000
0.000458 0.000785 0.000000
0.000465 0.000784 0.000000
0.000461 0.000787 0.000000
0.000469 0.000790 0.000000
0.000476 0.000792 0.000000
0.000481 0.000792 0.000000
0.000487 0.000795 0.000000
0.000493 0.000796 0.000000
0.000045 0.000445 0.000000
0.000046 0.000450 0.000000
0.000046 0.000455 0.000000
0.000045 0.000461 0.000000
0.000045 0.000467 0.000000
0.000046 0.000473 0.000000
0.000046 0.000478 0.000000
0.000040 0.000484 0.000000
0.000052 0.000485 0.000000
0.000046 0.000483 0.000000
0.000048 0.000493 0.000000
0.000050 0.000498 0.000000
0.000311 0.000577 0.000000
0.000365 0.000756 0.000000
0.000395 0.000763 0.000000
0.000408 0.000761 0.000000
0.000411 0.000760 0.000000
0.000421 0.000764 0.000000
0.000429 0.000767 0.000000
0.000433 0.000769 0.000000
0.000439 0.000771 0.000000
0.000448 0.000775 0.000000
0.000449 0.000780 0.000000
0.000459 0.000781 0.000000
0.000452 0.000774 0.000000
0.000467 0.000780 0.000000
0.000471 0.000784 0.000000
0.000477 0.000786 0.000000
0.000482 0.000787 0.000000
0.000485 0.000790 0.000000
0.000489 0.000791 0.000000
0.000495 0.000791 0.000000
0.000050 0.000445 0.000000
0.000051 0.000450 0.000000
0.000049 0.000455 0.000000
0.000052 0.000459 0.000000
0.000050 0.000464 0.000000
0.000051 0.000473 0.000000
0.000050 0.000468 0.000000
0.000050 0.000478 0.000000
0.000047 0.000488 0.000000
0.000053 0.000491 0.000000
0.000058 0.000492 0.000000
0.000053 0.000498 0.000000
0.000314 0.000650 0.000000
0.000365 0.000749 0.000000
0.000378 0.000754 0.000000
0.000402 0.000757 0.000000
0.000415 0.000758 0.000000
0.000418 0.000760 0.000000
0.000425 0.000760 0.000000
0.000428 0.000762 0.000000
0.000441 0.000765 0.000000
0.000438 0.000766 0.000000
0.000449 0.000768 0.000000
0.000457 0.000772 0.000000
0.000459 0.000776 0.000000
0.000463 0.000777 0.000000
0.000470 0.000780 0.000000
0.000475 0.000778 0.000000
0.000477 0.000782 0.000000
0.000485 0.000784 0.000000
0.000491 0.000786 0.000000
0.000496 0.000786 0.000000
0.000054 0.000445 0.000000
0.000057 0.000450 0.000000
0.000055 0.000455 0.000000
0.000055 0.000462 0.000000
0.000056 0.000466 0.000000
0.000055 0.000471 0.000000
0.000056 0.000477 0.000000
0.000058 0.000480 0.000000
0.000053 0.000483 0.000000
0.000057 0.000486 0.000000
0.000056 0.000497 0.000000
0.000060 0.000497 0.000000
0.000319 0.000673 0.000000
0.000362 0.000754 0.000000
0.000371 0.000752 0.000000
[...]
POINT_DATA 9483
SCALARS density float 1
LOOKUP_TABLE default
4430.420459
4429.225256
4426.245711
4421.911777
4419.979898
4430.560877
4439.113688
4435.940247
4445.612427
4424.281146
4432.367064
4400.120093
4423.637084
4440.011331
4439.220454
4430.084332
4441.130564
4442.125455
4452.324899
4450.031008
4422.412258
4422.503971
4413.318221
4445.820950
4428.579744
4419.884803
4449.973694
4438.968769
4416.158221
4459.246017
4437.249644
4446.894794
4427.224078
4429.374441
4425.585358
4441.573809
4444.217494
4421.928396
4416.975511
4413.350418
4396.273885
4426.711026
4438.957828
4402.170858
4420.384819
4435.334250
4414.576291
4400.266091
4419.728386
4412.357433
4421.856701
4450.273920
4415.955170
4437.821104
4433.227143
4388.567302
4411.998438
4397.042218
4389.002911
4412.403054
4406.724836
4408.927873
4412.117327
4416.136595
4422.758558
4434.400841
4438.894039
4404.199621
4427.285668
4414.811410
4460.288836
4406.718075
4482.374485
4362.251666
4474.977346
4405.017791
4405.472787
4482.404021
4435.531218
4385.978327
4406.820619
4420.828977
4433.327601
4402.562222
4443.731907
4410.079365
4414.050632
4422.559267
4419.357679
4409.530040
4481.753290
4396.585170
4452.923294
4446.190605
4446.461934
4416.777457
4435.976103
4444.335491
4446.303049
4433.157460
4447.096520
4399.008210
4456.149981
4356.779035
4473.518220
4400.658418
4514.494266
4395.775451
4436.928721
4343.378886
4433.338223
4423.919443
4457.098061
4449.049626
4429.787054
4432.087692
4425.822586
4411.575809
4455.204052
4424.089817
4410.882290
4460.608502
4457.234826
4493.160831
4457.412680
4332.617099
4517.707359
4448.748155
4434.692573
4419.074647
4433.223227
4409.632501
4457.221578
4425.525435
4445.298124
4453.607686
4481.479991
4357.328153
4481.047964
4441.467520
4420.546767
4381.868523
4466.861345
4395.731409
4536.479524
4446.065330
4475.463874
4447.706634
4421.235760
4410.547287
4430.522266
4446.522815
4419.743731
4426.581018
4375.032145
4446.248203
4454.258841
4444.323500
4353.123625
4434.730250
4428.783135
4439.622787
4424.357440
4443.906355
4446.983241
4399.360260
4454.198219
4366.826601
4421.898158
4468.741260
4405.596605
4428.725006
4424.438056
4476.195486
4374.248157
4345.749394
4464.779838
4384.151307
4431.491493
4396.236526
4415.292181
4438.048360
4465.778715
4381.447011
4407.770971
4460.725257
4359.404069
4501.425628
4469.554816
4391.449937
4429.203519
4422.266724
4433.417935
4421.334208
4427.698558
4432.690200
4422.931941
4457.796194
4419.004128
4456.908839
4441.412539
4414.655259
4457.608786
4425.811602
4417.159844
4425.399435
4421.434236
4463.102584
4417.464782
4420.533148
4453.167673
4440.077464
4427.278093
4412.622403
4437.590695
4459.988232
4397.859919
4393.569099
4415.653054
4441.530241
4483.054991
4396.126419
4420.532017
4443.171027
4435.516620
4423.209304
4431.097991
4426.494080
4417.478700
4422.882167
4455.238257
4421.368319
4410.191417
4431.034926
4413.275285
4444.531544
4424.730064
4419.527682
4422.267613
4414.212461
4437.569165
4434.534462
4437.108867
4415.744564
4434.182205
4435.764904
4414.198354
4427.350673
4446.543384
4453.668998
4394.009312
4461.644759
4436.153662
4425.290347
4415.783542
4414.710627
4426.763147
4422.529184
4431.129815
4398.907579
4454.802356
4441.244170
4442.187393
4423.037231
4453.567612
4436.032337
4436.315522
4422.978691
4589.658356
4385.521407
4441.007346
4435.712335
4387.615005
4435.931776
4430.219964
4428.280654
4442.821864
4451.535995
4457.708687
4421.005213
4444.443730
4393.667254
4443.987435
4429.635012
4435.785835
4369.190703
4441.601644
4440.445705
4428.986251
4427.453414
4442.321375
4410.384206
4402.543748
4412.025778
4462.030667
4428.243383
4461.337295
4418.774129
4473.745856
4437.555910
4512.418245
4416.523043
4435.480977
4462.789719
4448.169909
4418.987230
4454.772720
4430.082253
4415.639978
4433.627060
4412.823067
4410.032362
4424.408653
4448.670130
4410.065456
4408.854524
4446.954997
4469.347530
4411.458735
4415.639141
4435.946565
4406.603336
4445.400253
4433.432928
4427.172363
4449.864721
4445.420187
4370.442534
4368.636843
4409.444966
4521.985941
4414.593962
4431.015491
4495.981670
4438.578182
4444.744920
4446.824280
4426.451158
4467.422395
4408.923749
4462.316812
4452.109886
4434.146868
4405.115078
4456.090344
4441.210773
4457.815766
4424.676206
4451.923387
4413.214423
4421.763134
4434.912840
4428.294428
4424.322412
4421.143305
4448.611179
4401.442643
4434.623755
4425.357325
4430.715006
4475.519289
4350.500484
4426.367395
4397.200614
4425.941355
4407.966854
4493.236550
4429.922446
4448.453431
4415.401149
4457.023990
4438.929020
4403.871719
4439.106057
4445.266993
4402.165828
4420.397223
4415.713406
4435.782933
4420.462532
4446.338719
4433.414625
4434.337759
4420.959631
4417.391759
4411.043008
4453.587938
4438.096598
4411.859503
4449.821010
4431.280418
4418.497533
4481.053439
4411.479736
4440.540218
4431.691471
4413.843105
4433.538383
4438.691295
4412.599051
4385.292627
4450.188106
4411.000078
4452.158844
4386.569554
4408.165521
4430.621304
4432.114498
4441.690074
4441.350820
4466.172499
4451.357947
4422.480604
4425.290243
4423.196704
4432.101525
4440.700094
4421.978991
4409.283334
4444.552669
4440.401474
4422.084959
4404.636026
4437.978229
4454.650576
4369.504610
4467.658001
4430.387954
4425.518277
4414.889503
4433.180579
4417.270614
4444.984742
4419.103561
4437.502089
4415.180736
4416.457264
4444.603647
4449.565603
4459.330728
4396.498703
4417.559918
4397.874317
4433.626457
4419.194640
4444.254508
4423.561637
4423.976761
4429.445054
4428.571088
4407.692684
4401.430084
4407.916777
4454.295922
4412.972740
4425.849281
4377.698095
4423.789636
4431.504489
4450.333684
4563.551824
4418.987763
4417.016216
4461.575626
4442.946308
4404.529003
4437.187428
4494.101715
4370.052914
4430.186353
4464.408591
4408.702121
4406.383948
4449.479487
4408.888485
4445.952879
4427.241321
4419.991146
4430.320634
4428.583422
4438.746717
4409.057709
4432.820640
4422.448953
4446.222526
4408.109414
4445.976798
4454.644952
4482.745579
4335.192764
4445.973928
4452.027930
4426.353516
4416.183926
4418.280300
4328.516468
4445.993524
4467.611237
4443.422719
4443.208612
4435.328846
4414.450323
4415.773014
4422.315152
4496.262238
4456.814963
4450.904224
4395.167367
4427.262058
4431.016121
4423.281915
4426.836392
4414.401400
4422.295410
4433.404789
4417.390737
4429.137278
4414.150356
4459.869319
4396.522270
4454.133684
4482.499729
4418.104837
4417.278306
4414.901666
4427.389054
4458.329435
4428.498527
4442.100187
4431.629097
4448.293767
4421.775744
4454.157934
4454.175616
4433.203037
4443.039128
4438.578932
4442.560403
4427.786721
4441.069263
4437.575680
4444.793697
4421.385871
4433.009568
4446.017372
4433.837410
4431.051538
4455.069452
4467.904654
4419.241416
4435.319616
4430.267207
4396.126846
4357.842265
4430.042617
4468.796703
4491.684676
4489.056534
4462.708207
4435.563230
4425.341520
4382.742564
4468.970712
4474.586565
4448.385486
4485.029621
4436.578147
4405.661981
4400.908920
4462.344883
4394.686887
4438.849902
4398.576580
4436.923573
4425.900141
4427.255675
4422.406948
4432.246360
4434.200068
4423.435807
4399.967192
4465.839086
4436.729096
4462.581331
4431.784645
4446.425302
4396.414681
4426.948557
4420.545945
4416.332340
4429.035559
4411.292433
4436.809186
4398.450075
4433.795996
4411.308982
4409.973410
4424.835872
4398.210989
4415.301428
4451.059980
4434.274568
4452.579010
4437.676590
4447.432317
4436.903121
4417.148782
4427.326413
4444.314569
4429.145279
4401.850098
4415.502958
4429.093857
4384.397285
4415.099250
4399.651133
4482.713468
4448.263605
4430.201596
4439.978631
4415.091941
4419.609008
4462.847068
4437.033901
4412.285782
4440.063691
4436.456870
4377.702911
4502.870465
4420.640577
4459.600080
4395.446149
4450.926867
4398.714206
4432.821506
4408.606332
4412.457222
4431.347628
4431.590798
4427.410878
4417.728797
4421.447600
4441.751868
4428.046723
4438.468114
4457.132310
4397.781150
4372.966865
4458.846180
4468.784004
4381.240366
4540.878894
4426.198873
4420.893085
4413.609775
4459.420277
4424.934614
4438.620071
4413.799747
4473.392784
4442.412590
4465.623687
4461.759058
4395.111304
4465.072203
4438.467058
4434.303429
4469.189281
4444.696676
4402.502416
4441.844795
4418.249690
4447.448043
4435.426865
4416.037699
4414.862612
4449.515174
4435.342714
4400.714193
4439.230786
4477.113153
4371.299095
4426.366294
4433.054059
4440.601940
4432.364879
4415.130704
4401.837560
4438.917236
4459.503616
4493.414911
4449.286629
4412.818928
4351.912994
4442.926353
4456.268819
4463.693907
4423.152697
4419.615163
4418.278497
4432.076737
4421.237241
4434.421449
4436.682684
4427.906956
4429.599546
4435.884046
4450.618591
4400.735155
4405.450260
4437.811311
4390.723321
4450.144940
4393.231060
4383.628844
4473.303183
4428.155479
4419.511070
4428.539992
4462.244264
4456.532223
4444.260819
4428.158381
4409.306794
4401.837316
4365.900007
4352.971753
4447.305819
4416.778058
4416.356783
4456.161706
4428.953061
4471.846258
4421.544949
4410.542348
4426.021787
4433.969204
4444.704861
4417.345058
4409.368660
4431.812185
4431.860279
4404.074578
4449.544282
4462.198479
4452.488942
4414.339766
4426.957510
4416.943046
4430.099809
4376.141218
4356.476285
4464.826043
4454.304157
4424.930277
4422.876041
4455.425433
4425.180596
4420.902952
4434.365752
4454.145978
4445.249783
4424.936191
4434.941822
4412.118915
4412.019778
4453.258431
4422.351985
4418.313356
4428.773745
4428.417037
4428.888449
4429.422437
4429.549334
4429.941271
4430.047360
4430.446034
4430.583304
4431.025565
4431.070835
4431.167089
4430.855930
4430.107139
4421.779793
4427.664565
4427.729219
4428.625173
4429.218207
4429.442916
4430.024003
4430.049327
4430.435896
4430.226675
4430.437772
4430.295406
4430.591374
4430.789532
4430.771703
4424.353977
4427.498134
4427.381776
4427.895997
4428.712019
4428.599692
4429.372347
4429.159259
4429.927124
4429.918493
4430.666779
4430.393681
4430.432371
4430.229291
4429.309998
4425.444475
4427.741096
4427.758728
4428.262873
4428.767242
4429.024204
4429.401389
4429.495596
4429.792486
4429.372536
4429.494332
4429.017443
4429.463625
4428.821669
4429.868542
4426.666481
4427.911440
4427.790052
4427.915215
4428.373127
4428.237941
4428.881411
4428.670899
4429.227544
4429.302801
4429.987165
4429.438744
4429.993671
4428.128182
4428.836955
4426.906945
4428.036479
4428.198642
4427.985439
4428.903901
4428.478783
4429.301519
4428.768001
4429.570565
4428.616268
4428.993194
4428.367329
4428.487482
4427.838559
4429.089640
4427.103027
4428.148677
4428.002644
4427.950392
4428.211666
4428.022203
4428.534613
4428.342751
4428.794810
4428.844040
4429.616270
4429.032599
4429.344604
4427.690216
4428.749988
4427.261798
4428.327887
4428.080257
4428.148873
4428.580731
4428.480214
4428.824492
4428.670546
4428.997613
4428.537059
4428.528427
4428.016471
4428.808435
4427.000522
4427.573251
4427.091004
4428.199039
4428.034422
4427.817516
4428.125224
4427.779479
4428.313412
4428.006356
4428.575159
4428.510972
4429.449471
4429.319174
4429.381665
4428.957217
4428.909897
4427.322363
4428.347315
4427.963363
4428.154015
4428.307271
4428.385742
4428.454376
4428.526852
4428.471781
4428.552992
4428.140904
4428.479357
4428.982828
4429.352851
4429.475790
4426.898659
4428.297428
4427.748248
4427.853310
4427.735634
4427.774939
4427.766816
4427.853364
4428.089547
4428.309854
4429.122024
4429.250617
4430.366253
4429.996638
4430.880030
4426.932507
4428.359863
4427.700658
4428.035017
4428.087926
4428.047867
4428.184724
4428.050389
4428.251338
4427.913095
4428.044867
4427.871842
4428.692636
4429.531064
4431.077170
4426.900066
4428.126972
4427.673872
4427.726722
4427.426212
4427.583321
4427.350061
4427.643984
4427.448794
4428.112280
4428.018235
4428.792187
4428.960646
4429.305620
4430.130360
4426.357408
4439.714751
4431.136888
4451.362579
4420.611172
4458.452835
4430.071630
4418.678257
4395.839627
4412.538098
4403.385966
4436.144459
4421.694716
4438.906593
4428.379956
4415.942712
4426.835816
4428.121044
4427.688236
4427.673479
4427.908889
4427.749283
4427.792061
4427.703484
4427.645523
4427.179683
4427.235395
4426.827592
4426.575586
4427.603721
4427.874977
4425.608385
4444.224292
4420.642263
4422.705984
4410.054140
4440.735809
4432.892860
4393.091449
4443.164565
4436.090309
4408.712311
4458.576992
4425.483242
4468.023694
4391.115058
4398.472600
4426.400369
4427.818126
4427.613697
4427.300431
4427.463338
4426.790872
4427.459616
4426.516719
4427.350665
4426.842739
4427.635930
4427.010613
4427.990852
4425.946479
4427.777399
4424.381489
4451.423630
4420.806520
4442.782416
4397.397784
4444.489200
4421.211559
4413.324603
4431.782112
4425.798505
4461.409004
4424.627312
4411.726885
4449.544559
4374.488591
4444.636884
4426.479129
4427.790943
4427.724421
4427.102451
4427.816303
4427.243404
4427.464113
4427.138895
4427.170035
4426.353172
4426.595393
4425.344464
4425.746700
4423.271023
4426.821170
4414.205173
4408.803884
4402.972843
4373.212832
4410.169450
4442.081610
4428.997361
4453.331037
4413.560576
4411.614407
4441.984935
4410.021985
4403.856721
4390.493729
4406.381769
4430.380032
4425.977950
4427.831012
4427.160780
4427.241816
4427.008290
4426.583738
4426.914262
4426.353284
4426.651387
4426.611490
4426.500384
4425.939072
4426.047726
4423.703840
4421.492078
4439.547595
4452.805980
4408.113862
4466.024057
4462.216320
4429.731673
4501.854644
4436.108086
4397.333133
4456.123354
4446.422185
4462.478527
4412.859670
4402.065515
4435.576663
4411.725399
4425.948156
4427.895965
4427.057050
4427.354044
4426.959307
4427.359384
4426.906115
4426.941564
4426.750692
4425.812846
4425.816069
4424.933514
4424.082590
4423.425299
4422.553740
4417.978975
4402.952532
4447.453053
4443.399631
4491.003336
4383.028635
4451.842878
4419.224358
4428.997187
4385.356018
4392.353922
4452.953018
4403.709149
4446.371935
4457.957843
4428.580716
4425.993602
4427.515457
4427.283574
4426.676197
4427.057279
4426.403545
4426.557708
4426.556953
4425.968894
4426.778946
4425.618585
4425.916746
4425.639534
4423.713795
4424.207929
4448.780927
4440.589890
4455.389800
4384.776354
4340.305736
4436.731635
4510.037103
4556.885382
4451.994968
4439.186336
4406.370462
4410.399733
4476.881987
4428.526489
4484.764423
4392.635845
4425.802821
4427.638547
4427.016165
4427.155905
4426.986703
4426.923902
4427.218959
4426.314900
4426.911967
4425.257538
4426.137842
4424.654835
4424.652075
4424.976685
4424.537932
4433.261959
4416.631421
4441.972471
4408.710811
4406.958850
4467.637268
4429.647870
4460.574532
4409.806668
4407.135556
4455.421450
4380.277775
4423.580553
4462.795027
4425.687840
4434.669314
4425.698711
4427.406853
4427.151482
4426.527956
4427.062945
4426.360686
4426.711877
4426.099006
4426.534612
4426.025344
4426.305087
4426.029782
4426.274451
4425.676473
4426.245631
4426.662279
4450.631266
4401.424126
4431.553186
4432.916113
4432.205899
4487.066181
4425.150839
4431.807111
4432.906218
4414.033395
4386.090044
4423.795605
4438.368785
4391.684502
4410.407190
4425.702925
4427.342350
4427.278855
4426.638351
4427.414020
4426.479237
4427.126197
4426.494115
4426.071590
4425.736350
4425.728779
4424.568957
4426.029259
4424.095856
4426.708120
4419.563022
4435.134803
4436.795211
4437.898665
4379.995501
4410.399701
4414.734417
4464.640881
4408.590957
4408.859576
4414.066246
4435.571498
4341.671160
4419.193983
4498.876556
4440.449497
4425.692141
4427.501472
4426.860220
4426.999401
4426.511729
4426.550811
4426.507182
4425.460009
4426.648959
4425.451910
4426.310313
4426.024172
4425.449911
4424.197086
4425.001701
4434.365136
4431.284211
4437.452149
4423.083463
4431.493934
4428.777141
4452.922638
4474.301380
4426.919812
4430.864308
4432.437406
4433.117962
4448.999608
4454.164208
4386.650800
4393.261730
4425.770152
4427.370442
4427.147280
4426.523706
4427.175874
4426.301396
4426.615278
4426.444487
4425.894917
4425.608325
4426.056698
4424.264770
4425.429255
4423.805752
4422.763082
4445.777918
4444.400270
4418.740769
4430.718070
4401.092678
4419.877923
4443.248041
4444.440157
4485.800336
4433.675797
4420.142143
4393.576679
4426.138837
4397.099546
4399.736237
4467.746545
4425.820936
4427.210152
4427.303069
4426.287812
4426.957051
4425.881458
4426.724980
4425.584374
4426.541695
4426.459778
4425.881548
4426.158860
4425.105204
4424.912271
4426.325625
4434.657481
4402.931617
4420.003599
4415.099262
4394.119780
4448.560777
4452.436818
4457.565324
4440.650154
4413.475011
4438.821599
4442.695458
4438.532102
4395.365102
4466.677730
4474.367366
4425.838652
4427.556973
4426.762506
4427.152283
4426.578120
4426.877798
4426.826935
4426.533666
4426.852771
4424.922549
4426.066950
4424.417091
4425.148959
4423.800252
4425.540424
4445.272067
4405.396593
4417.988203
4445.283132
4422.655885
4425.543276
4506.423116
4430.659015
4462.290372
4452.063650
4454.218051
4453.477535
4435.515776
4425.952141
4428.699942
4450.190161
4425.635054
4427.414964
4427.195169
4426.296886
4427.223449
4426.371329
4426.661282
4426.314761
4425.826509
4426.290996
4425.705284
4425.110243
4426.176444
4424.743826
4424.710724
4428.788953
4423.087226
4409.911331
4435.865651
4456.720800
4456.218829
4421.822367
4490.147435
4443.932009
4470.295808
4449.827750
4424.201383
4427.072672
4420.841637
4401.663841
4419.370353
4425.921769
4427.391333
4427.152238
4427.061046
4427.195250
4426.653284
4427.293182
4426.041208
4426.946798
4425.020524
4425.970473
4425.362538
4425.550623
4424.765505
4425.422860
4422.737878
4441.662619
4445.731103
4416.485730
4364.705921
4433.251694
4329.469291
4474.252302
4443.050232
4465.929881
4451.803179
4447.127496
4436.882613
4402.252681
4462.241115
4417.081118
4425.864744
4427.735387
4426.974386
4427.208146
4426.756536
4427.179982
4426.649947
4426.884949
4426.508714
4426.807750
4426.521448
4426.342911
4425.955148
4425.533178
4427.024607
4433.897212
4414.316018
4397.116886
4480.545616
4375.795115
4413.987944
4457.551161
4493.826388
4460.651745
4433.221536
4445.297017
4448.668754
4441.665330
4436.179111
4388.125115
4423.872896
4425.987814
4427.586623
4427.256052
4426.850971
4427.502191
4426.698115
4427.026932
4426.686932
4426.221077
4425.466679
4425.585527
4424.531853
4426.169753
4425.130208
4422.273607
4446.208373
4430.828807
4433.366317
4390.866384
4370.561221
4417.893976
4452.318136
4475.815684
4475.268438
4464.506316
4444.694149
4440.395626
4469.970149
4441.086236
4469.682683
4415.088483
4426.178927
4427.364922
4427.502682
4426.942303
4427.016262
4426.222092
4427.005335
4425.201109
4426.333045
4425.405365
4426.228144
4426.287818
4426.080300
4424.258355
4428.859395
4425.056185
4432.747932
4442.632720
4470.414147
4451.396408
4616.340089
4452.655580
4453.213234
4467.773266
4446.878591
4429.473244
4404.585819
4396.764410
4441.258721
4436.654223
4422.771928
4426.083146
4427.830452
4427.227828
4426.937569
4427.024566
4426.839775
4426.658404
4426.891857
4426.698061
4426.280924
4426.472866
4425.270353
4425.984286
4423.087447
4426.965695
4450.287486
4434.557448
4416.706568
4456.332141
4444.119126
4430.893454
4495.086004
4458.019211
4457.924522
4467.229188
4410.988451
4405.293389
4380.757691
4391.564247
4327.061611
4421.494815
4426.124448
4427.617063
4427.350860
4426.873377
4427.512261
4426.632277
4427.731037
4426.675859
4427.430644
4426.945385
4427.302542
4424.806887
4426.499789
4426.591040
4422.638598
4437.757019
4437.467291
4442.671191
4435.985323
4452.768362
4462.524522
4473.217139
4456.960991
4458.281347
4461.358966
4461.745261
4436.231727
4411.007794
4461.459745
4540.261360
4411.608586
4426.176427
4427.729847
4427.648889
4427.388151
4427.518967
4427.394670
4427.408846
4426.635226
4427.391773
4425.328805
4424.679144
4424.852496
4424.917773
4423.956881
4427.828945
4426.009555
4423.466288
4402.703549
4431.673059
4428.550030
4451.666133
4447.691567
4447.723653
4468.954394
4445.219293
4467.807394
4448.017710
4416.593108
4438.916715
4410.044787
4438.115072
4426.401170
4428.282354
4427.244362
4427.779398
4427.244793
4427.492280
4426.568132
4427.472524
4425.675037
4426.805982
4424.910983
4423.499176
4425.149803
4425.527837
4426.304495
4423.704845
4419.360188
4406.723444
4432.153941
4426.252075
4445.493081
4437.423353
4464.060666
4441.835214
4463.884414
4448.519552
4458.408795
4457.682540
4425.786950
4387.554952
4404.434964