# vtk DataFile Version 2.0
mfree iwf
ASCII

DATASET UNSTRUCTURED_GRID
POINTS 8436 float
0.000001 0.000445 0.000000
0.000001 0.000450 0.000000
0.000001 0.000455 0.000000
0.000001 0.000461 0.000000
0.000001 0.000466 0.000000
0.000001 0.000471 0.000000
0.000001 0.000476 0.000000
0.000001 0.000481 0.000000
0.000001 0.000486 0.000000
0.000002 0.000490 0.000000
0.000001 0.000496 0.000000
0.000003 0.000500 0.000000
0.000091 0.000538 0.000000
0.000091 0.000548 0.000000
0.000091 0.000556 0.000000
0.000091 0.000565 0.000000
0.000091 0.000564 0.000000
0.000091 0.000571 0.000000
0.000091 0.000576 0.000000
0.000091 0.000582 0.000000
0.000091 0.000587 0.000000
0.000091 0.000593 0.000000
0.000091 0.000598 0.000000
0.000092 0.000603 0.000000
0.000092 0.000607 0.000000
0.000092 0.000613 0.000000
0.000092 0.000617 0.000000
0.000093 0.000623 0.000000
0.000093 0.000627 0.000000
0.000094 0.000633 0.000000
0.000094 0.000641 0.000000
0.000096 0.000669 0.000000
0.000006 0.000445 0.000000
0.000006 0.000450 0.000000
0.000006 0.000455 0.000000
0.000006 0.000460 0.000000
0.000006 0.000466 0.000000
0.000006 0.000470 0.000000
0.000006 0.000476 0.000000
0.000006 0.000480 0.000000
0.000006 0.000486 0.000000
0.000007 0.000490 0.000000
0.000005 0.000496 0.000000
0.000007 0.000499 0.000000
0.000094 0.000554 0.000000
0.000097 0.000559 0.000000
0.000096 0.000568 0.000000
0.000096 0.000574 0.000000
0.000096 0.000580 0.000000
0.000095 0.000586 0.000000
0.000096 0.000592 0.000000
0.000096 0.000597 0.000000
0.000097 0.000603 0.000000
0.000096 0.000609 0.000000
0.000097 0.000616 0.000000
0.000097 0.000622 0.000000
0.000099 0.000629 0.000000
0.000098 0.000635 0.000000
0.000098 0.000640 0.000000
0.000098 0.000644 0.000000
0.000096 0.000654 0.000000
0.000096 0.000658 0.000000
0.000095 0.000654 0.000000
0.000096 0.000665 0.000000
0.000011 0.000445 0.000000
0.000011 0.000450 0.000000
0.000011 0.000456 0.000000
0.000012 0.000460 0.000000
0.000011 0.000466 0.000000
0.000012 0.000470 0.000000
0.000011 0.000476 0.000000
0.000012 0.000480 0.000000
0.000010 0.000486 0.000000
0.000013 0.000490 0.000000
0.000010 0.000497 0.000000
0.000012 0.000498 0.000000
0.000101 0.000547 0.000000
0.000102 0.000555 0.000000
0.000098 0.000560 0.000000
0.000100 0.000567 0.000000
0.000100 0.000573 0.000000
0.000100 0.000577 0.000000
0.000101 0.000581 0.000000
0.000101 0.000588 0.000000
0.000101 0.000593 0.000000
0.000099 0.000598 0.000000
0.000103 0.000603 0.000000
0.000101 0.000610 0.000000
0.000103 0.000614 0.000000
0.000104 0.000621 0.000000
0.000100 0.000625 0.000000
0.000101 0.000633 0.000000
0.000100 0.000648 0.000000
0.000100 0.000652 0.000000
0.000098 0.000660 0.000000
0.000101 0.000667 0.000000
0.000016 0.000445 0.000000
0.000017 0.000450 0.000000
0.000015 0.000456 0.000000
0.000017 0.000460 0.000000
0.000015 0.000466 0.000000
0.000017 0.000470 0.000000
0.000015 0.000476 0.000000
0.000017 0.000480 0.000000
0.000015 0.000485 0.000000
0.000018 0.000489 0.000000
0.000016 0.000496 0.000000
0.000018 0.000498 0.000000
0.000026 0.000500 0.000000
0.000102 0.000562 0.000000
0.000103 0.000567 0.000000
0.000106 0.000572 0.000000
0.000107 0.000581 0.000000
0.000101 0.000585 0.000000
0.000107 0.000590 0.000000
0.000104 0.000598 0.000000
0.000107 0.000602 0.000000
0.000102 0.000608 0.000000
0.000108 0.000615 0.000000
0.000101 0.000619 0.000000
0.000105 0.000627 0.000000
0.000105 0.000633 0.000000
0.000105 0.000638 0.000000
0.000103 0.000643 0.000000
0.000105 0.000646 0.000000
0.000104 0.000655 0.000000
0.000103 0.000659 0.000000
0.000104 0.000666 0.000000
0.000020 0.000445 0.000000
0.000022 0.000450 0.000000
0.000020 0.000456 0.000000
0.000022 0.000460 0.000000
0.000020 0.000466 0.000000
0.000022 0.000470 0.000000
0.000020 0.000475 0.000000
0.000022 0.000480 0.000000
0.000020 0.000486 0.000000
0.000022 0.000490 0.000000
0.000022 0.000498 0.000000
0.000023 0.000499 0.000000
0.000040 0.000500 0.000000
0.000109 0.000559 0.000000
0.000111 0.000565 0.000000
0.000109 0.000569 0.000000
0.000106 0.000577 0.000000
0.000111 0.000578 0.000000
0.000109 0.000587 0.000000
0.000109 0.000593 0.000000
0.000108 0.000597 0.000000
0.000109 0.000606 0.000000
0.000110 0.000610 0.000000
0.000111 0.000619 0.000000
0.000108 0.000623 0.000000
0.000110 0.000629 0.000000
0.000109 0.000634 0.000000
0.000110 0.000645 0.000000
0.000107 0.000651 0.000000
0.000110 0.000656 0.000000
0.000108 0.000659 0.000000
0.000109 0.000666 0.000000
0.000026 0.000445 0.000000
0.000027 0.000450 0.000000
0.000025 0.000456 0.000000
0.000027 0.000459 0.000000
0.000025 0.000466 0.000000
0.000027 0.000470 0.000000
0.000025 0.000476 0.000000
0.000027 0.000480 0.000000
0.000025 0.000485 0.000000
0.000028 0.000490 0.000000
0.000027 0.000493 0.000000
0.000028 0.000500 0.000000
0.000094 0.000550 0.000000
0.000105 0.000557 0.000000
0.000108 0.000563 0.000000
0.000112 0.000572 0.000000
0.000115 0.000576 0.000000
0.000110 0.000584 0.000000
0.000115 0.000587 0.000000
0.000114 0.000595 0.000000
0.000113 0.000601 0.000000
0.000115 0.000605 0.000000
0.000110 0.000613 0.000000
0.000115 0.000616 0.000000
0.000112 0.000625 0.000000
0.000114 0.000636 0.000000
0.000110 0.000640 0.000000
0.000114 0.000641 0.000000
0.000112 0.000649 0.000000
0.000113 0.000652 0.000000
0.000113 0.000660 0.000000
0.000113 0.000666 0.000000
0.000031 0.000445 0.000000
0.000031 0.000450 0.000000
0.000030 0.000455 0.000000
0.000032 0.000461 0.000000
0.000030 0.000466 0.000000
0.000032 0.000469 0.000000
0.000030 0.000475 0.000000
0.000032 0.000480 0.000000
0.000031 0.000486 0.000000
0.000032 0.000491 0.000000
0.000034 0.000498 0.000000
0.000032 0.000499 0.000000
0.000050 0.000500 0.000000
0.000110 0.000552 0.000000
0.000117 0.000565 0.000000
0.000117 0.000569 0.000000
0.000117 0.000582 0.000000
0.000118 0.000583 0.000000
0.000116 0.000591 0.000000
0.000117 0.000597 0.000000
0.000119 0.000601 0.000000
0.000116 0.000610 0.000000
0.000120 0.000613 0.000000
0.000116 0.000623 0.000000
0.000119 0.000629 0.000000
0.000115 0.000630 0.000000
0.000118 0.000634 0.000000
0.000116 0.000645 0.000000
0.000119 0.000651 0.000000
0.000117 0.000656 0.000000
0.000117 0.000660 0.000000
0.000118 0.000665 0.000000
0.000036 0.000445 0.000000
0.000036 0.000450 0.000000
0.000037 0.000454 0.000000
0.000036 0.000459 0.000000
0.000036 0.000465 0.000000
0.000037 0.000471 0.000000
0.000035 0.000476 0.000000
0.000039 0.000481 0.000000
0.000035 0.000485 0.000000
0.000037 0.000489 0.000000
0.000039 0.000492 0.000000
0.000037 0.000499 0.000000
0.000091 0.000531 0.000000
0.000094 0.000548 0.000000
0.000118 0.000562 0.000000
0.000120 0.000572 0.000000
0.000119 0.000576 0.000000
0.000124 0.000582 0.000000
0.000121 0.000591 0.000000
0.000123 0.000595 0.000000
0.000119 0.000606 0.000000
0.000123 0.000606 0.000000
0.000118 0.000619 0.000000
0.000123 0.000619 0.000000
0.000121 0.000625 0.000000
0.000122 0.000636 0.000000
0.000120 0.000641 0.000000
0.000124 0.000645 0.000000
0.000120 0.000647 0.000000
0.000122 0.000655 0.000000
0.000122 0.000660 0.000000
0.000123 0.000665 0.000000
0.000041 0.000445 0.000000
0.000041 0.000450 0.000000
0.000039 0.000460 0.000000
0.000043 0.000457 0.000000
0.000041 0.000466 0.000000
0.000041 0.000470 0.000000
0.000043 0.000475 0.000000
0.000039 0.000477 0.000000
0.000042 0.000486 0.000000
0.000043 0.000491 0.000000
0.000043 0.000497 0.000000
0.000046 0.000498 0.000000
0.000091 0.000509 0.000000
0.000101 0.000551 0.000000
0.000120 0.000560 0.000000
0.000128 0.000569 0.000000
0.000124 0.000578 0.000000
0.000124 0.000587 0.000000
0.000127 0.000589 0.000000
0.000124 0.000599 0.000000
0.000127 0.000601 0.000000
0.000124 0.000610 0.000000
0.000126 0.000614 0.000000
0.000127 0.000621 0.000000
0.000124 0.000628 0.000000
0.000127 0.000631 0.000000
0.000125 0.000636 0.000000
0.000126 0.000642 0.000000
0.000126 0.000650 0.000000
0.000127 0.000654 0.000000
0.000127 0.000660 0.000000
0.000127 0.000665 0.000000
0.000045 0.000445 0.000000
0.000046 0.000450 0.000000
0.000046 0.000455 0.000000
0.000046 0.000461 0.000000
0.000045 0.000465 0.000000
0.000047 0.000469 0.000000
0.000047 0.000477 0.000000
0.000044 0.000481 0.000000
0.000050 0.000484 0.000000
0.000046 0.000487 0.000000
0.000049 0.000493 0.000000
0.000051 0.000498 0.000000
0.000091 0.000517 0.000000
0.000098 0.000540 0.000000
0.000113 0.000559 0.000000
0.000127 0.000573 0.000000
0.000128 0.000578 0.000000
0.000129 0.000585 0.000000
0.000129 0.000593 0.000000
0.000131 0.000599 0.000000
0.000129 0.000607 0.000000
0.000132 0.000612 0.000000
0.000129 0.000617 0.000000
0.000129 0.000627 0.000000
0.000131 0.000623 0.000000
0.000131 0.000635 0.000000
0.000131 0.000640 0.000000
0.000131 0.000645 0.000000
0.000132 0.000650 0.000000
0.000132 0.000655 0.000000
0.000132 0.000660 0.000000
0.000132 0.000665 0.000000
0.000050 0.000445 0.000000
0.000052 0.000450 0.000000
0.000049 0.000457 0.000000
0.000053 0.000458 0.000000
0.000050 0.000465 0.000000
0.000053 0.000471 0.000000
0.000049 0.000474 0.000000
0.000052 0.000479 0.000000
0.000050 0.000488 0.000000
0.000053 0.000491 0.000000
0.000059 0.000493 0.000000
0.000054 0.000499 0.000000
0.000091 0.000528 0.000000
0.000098 0.000538 0.000000
0.000108 0.000549 0.000000
0.000123 0.000568 0.000000
0.000132 0.000576 0.000000
0.000132 0.000585 0.000000
0.000134 0.000590 0.000000
0.000132 0.000595 0.000000
0.000136 0.000603 0.000000
0.000132 0.000606 0.000000
0.000134 0.000615 0.000000
0.000135 0.000620 0.000000
0.000135 0.000628 0.000000
0.000133 0.000632 0.000000
0.000136 0.000637 0.000000
0.000136 0.000642 0.000000
0.000136 0.000648 0.000000
0.000136 0.000654 0.000000
0.000137 0.000659 0.000000
0.000137 0.000664 0.000000
0.000055 0.000445 0.000000
0.000057 0.000450 0.000000
0.000055 0.000455 0.000000
0.000057 0.000461 0.000000
0.000055 0.000466 0.000000
0.000058 0.000469 0.000000
0.000056 0.000475 0.000000
0.000059 0.000482 0.000000
0.000055 0.000483 0.000000
0.000057 0.000487 0.000000
0.000057 0.000497 0.000000
0.000061 0.000497 0.000000
0.000095 0.000533 0.000000
0.000098 0.000544 0.000000
0.000105 0.000547 0.000000
[...]
POINT_DATA 8436
SCALARS density float 1
LOOKUP_TABLE default
4422.935577
4426.870395
4423.909343
4422.441748
4426.575379
4426.161345
4434.845806
4430.552257
4441.713516
4424.459155
4434.506433
4397.380073
4633.074035
4465.761760
4565.561612
4504.478701
4492.899763
4515.507187
4494.164668
4484.861719
4483.047385
4433.753597
4445.117783
4428.078809
4424.693188
4442.273443
4431.754641
4427.123685
4438.683874
4423.124588
4449.454307
4415.391085
4429.200177
4426.989445
4426.854298
4427.249311
4434.948060
4421.037338
4424.401665
4426.122426
4409.526179
4418.463557
4447.228181
4398.102757
4431.131855
4454.277249
4424.958732
4419.134623
4419.497336
4406.590471
4422.559053
4425.455591
4389.797619
4378.861251
4391.275561
4403.257221
4408.534478
4401.214360
4405.279083
4379.708947
4440.762858
4398.720975
4444.136064
4462.270237
4424.776604
4418.649669
4432.831536
4421.087131
4432.535827
4411.513394
4451.694631
4383.777002
4474.936882
4365.884913
4477.943756
4404.897913
4468.447213
4482.083156
4482.822781
4457.512160
4467.088370
4462.441888
4434.806920
4461.835304
4395.029138
4444.863967
4405.901763
4495.742173
4360.969520
4420.962029
4430.484783
4458.822373
4396.244474
4473.089050
4411.775475
4429.186024
4426.177983
4435.943920
4440.648664
4432.335522
4439.685987
4421.215255
4453.918638
4396.283097
4469.693217
4382.053390
4516.461976
4396.299589
4430.387436
4445.355157
4456.896665
4436.310436
4431.197110
4447.060258
4421.987350
4451.533801
4448.407313
4447.358037
4413.886364
4467.651736
4357.984327
4475.310402
4365.415654
4519.686341
4457.702941
4386.381642
4443.034454
4432.783239
4427.195530
4437.662613
4425.776786
4423.387349
4437.910010
4432.998100
4428.848547
4429.312731
4466.443462
4356.340797
4474.784653
4425.335470
4411.035921
4436.221341
4473.043808
4459.244899
4440.074895
4472.047689
4463.276260
4430.654963
4435.890159
4377.582786
4443.910576
4430.150130
4439.762084
4436.383960
4423.611100
4388.706752
4384.858950
4441.923004
4442.297990
4432.672093
4433.024245
4445.120968
4442.209036
4440.710801
4438.551793
4426.628597
4443.081981
4421.309228
4416.892642
4479.762360
4434.284671
4422.383605
4443.267805
4475.768299
4470.287285
4450.955727
4447.045657
4424.209478
4443.053188
4436.500189
4435.498612
4451.883213
4466.993844
4422.196310
4461.427495
4445.407539
4388.574018
4467.541897
4477.852574
4442.646844
4406.831867
4432.442722
4433.844673
4427.861464
4408.296974
4403.642159
4445.671609
4410.352042
4444.621587
4419.192046
4427.049567
4379.583616
4471.348169
4412.871659
4426.543590
4449.919891
4436.809699
4487.799598
4466.170389
4461.464734
4457.395715
4442.783950
4417.980909
4398.164359
4437.354768
4404.255847
4438.795135
4396.667809
4413.930587
4398.886970
4405.725427
4410.397952
4443.922906
4426.841225
4434.872007
4439.115262
4409.209914
4459.336851
4434.696559
4437.388203
4426.563322
4416.127942
4434.567945
4429.067650
4433.415963
4446.108969
4543.744037
4452.872575
4438.852873
4472.625614
4458.939997
4456.608181
4448.739246
4442.739216
4448.956474
4454.467292
4462.928337
4422.300207
4426.732965
4443.516425
4404.293481
4444.000940
4430.775911
4425.925356
4443.581691
4421.364398
4429.988301
4413.220268
4434.043578
4414.269037
4430.464250
4434.634134
4421.404006
4415.549628
4446.238140
4407.156657
4435.144538
4425.639582
4819.432261
4429.140792
4494.854595
4457.643466
4476.533827
4460.339213
4476.202067
4470.546718
4446.873207
4453.306363
4436.403235
4431.219283
4431.844832
4399.636206
4449.668441
4425.892934
4429.584673
4424.335412
4399.562093
4431.645043
4436.359019
4431.990448
4432.176111
4418.943734
4446.171682
4413.002929
4452.874780
4402.532228
4448.930294
4418.708568
4463.763219
4442.414323
4619.005449
4450.536643
4469.087292
4446.481544
4472.127437
4461.857005
4447.468063
4447.933780
4444.609277
4442.877583
4446.402023
4457.135261
4446.122200
4422.609660
4426.993113
4418.919025
4419.757067
4442.202017
4432.877389
4418.106240
4430.152639
4421.955524
4438.277842
4421.175067
4419.732141
4418.656782
4446.858947
4387.016002
4427.722599
4422.177877
4551.142313
4397.041571
4451.577889
4440.367822
4447.721999
4474.915985
4437.363887
4447.185899
4457.064011
4461.173186
4454.573072
4450.212481
4445.569316
4425.653857
4436.906208
4453.905651
4437.497093
4440.555904
4440.581162
4408.339104
4423.314661
4414.632942
4435.521270
4425.399458
4432.557509
4429.588636
4422.904585
4431.849290
4430.445689
4415.213030
4476.345839
4389.744486
4394.845774
4399.343185
4409.639330
4479.791167
4477.589453
4427.609797
4459.752732
4467.863874
4441.574781
4466.143178
4452.180853
4446.250003
4453.847208
4434.333767
4457.659700
4424.011732
4439.246654
4413.826540
4441.103992
4426.420342
4416.046402
4425.590250
4426.741027
4408.170631
4435.919993
4420.646869
4418.861636
4411.956956
4444.793383
4402.778549
4459.418832
4390.086012
4449.881921
4435.541628
4418.750216
4392.108562
4451.609993
4419.517184
4446.830725
4442.499677
4473.663380
4455.493424
4450.566322
4449.117446
4448.338977
4442.491214
4443.081931
4426.049344
4446.821619
4448.131412
4423.415127
4420.536351
4414.792456
4415.901784
4444.433653
4432.637107
4418.137134
4430.370477
4446.073624
4421.373333
4456.313248
4428.233781
4429.144427
4405.539648
4430.853451
4429.295701
4627.383502
4568.333184
4473.302819
4444.763350
4412.835322
4461.696875
4435.015666
4472.824429
4475.206334
4458.966709
4449.546515
4445.501220
4429.378142
4455.644340
4412.965529
4432.886977
4436.773398
4411.914105
4424.095747
4414.321693
4423.183945
4426.598172
4424.200964
4425.224456
4406.800090
4430.953860
4431.638893
4407.643192
4430.298871
4470.326835
4451.229594
4464.725731
4432.256574
4418.038639
4523.340420
4492.373080
4465.692504
4453.681273
4476.506525
4465.194600
4455.158444
4442.044824
4457.389932
4457.985816
4464.379403
4434.175284
4435.445747
4425.331821
4444.564798
4408.041989
4420.866695
4416.102896
4444.219114
4435.363669
4414.877714
4437.024503
4423.785396
4411.862652
4408.648996
4431.855764
4395.482021
4361.250445
4470.096737
4425.912536
4413.719183
4390.325994
4465.233280
4490.759997
4412.523195
4448.737137
4443.920801
4438.308699
4459.188036
4460.313975
4463.500152
4426.022698
4443.356567
4416.742277
4454.271201
4411.565678
4420.082461
4417.150518
4413.358313
4413.021638
4421.239262
4422.189258
4432.780553
4415.100080
4426.646586
4433.449656
4442.610467
4397.011165
4448.686140
4482.844185
4412.809712
4489.994942
4438.624856
4470.451086
4544.986506
4472.448615
4421.800452
4434.371574
4465.272504
4462.296956
4465.058634
4430.528368
4469.756401
4465.264075
4446.265872
4426.857305
4441.047297
4434.004891
4446.068307
4423.978634
4416.308827
4411.676920
4446.043946
4435.267644
4447.282522
4433.909904
4428.067381
4410.952164
4421.607712
4454.619409
4397.712793
4396.382416
4587.773111
4367.228424
4432.245072
4526.554042
4518.715405
4466.636342
4481.354346
4434.781633
4454.186370
4463.243510
4488.328504
4500.070618
4457.361480
4458.265680
4459.411603
4444.881391
4432.514699
4434.216266
4424.444884
4407.119961
4421.806201
4411.312782
4425.823442
4438.635590
4426.878890
4436.265410
4441.074861
4439.101705
4440.620957
4433.634191
4447.794581
4495.669046
4469.012703
4538.222913
4478.848890
4466.703907
4489.967752
4475.188683
4505.242755
4447.940240
4448.988148
4447.078368
4410.911074
4442.961416
4443.774152
4456.018797
4428.611560
4445.222055
4444.648743
4424.451289
4437.056441
4415.939270
4416.020440
4409.062643
4443.737739
4439.839709
4427.557636
4423.629037
4413.144720
4456.883023
4410.833888
4456.533329
4403.505485
4384.005839
4434.144218
4446.960319
4453.933049
4502.864367
4466.794360
4494.067185
4474.107942
4473.733872
4392.641323
4403.692650
4439.425313
4448.073531
4448.985519
4464.056332
4455.318996
4452.581791
4442.571830
4443.385826
4428.527136
4421.613123
4412.819606
4411.548736
4414.753242
4422.402530
4422.228996
4445.125416
4421.068780
4417.825431
4417.162371
4426.481953
4456.985381
4442.295725
4442.380885
4459.627458
4475.782723
4466.036518
4459.814646
4491.931051
4450.082308
4499.177688
4498.268632
4478.195670
4411.557276
4441.454694
4445.796578
4449.524537
4456.208529
4455.254664
4446.395386
4430.466199
4428.041129
4408.999382
4418.407648
4411.959912
4448.323220
4434.263810
4441.959471
4412.853766
4426.213132
4431.267619
4437.891895
4420.382202
4452.989070
4410.877510
4460.130098
4446.584533
4460.927461
4474.468256
4478.778172
4471.957563
4484.629529
4495.664028
4456.773847
4468.575250
4439.318801
4381.935356
4457.151039
4441.464212
4447.345383
4449.209060
4449.117025
4440.071563
4440.165583
4415.437191
4417.030220
4409.310911
4414.550672
4435.917971
4435.393246
4443.502623
4421.791144
4420.037604
4441.167514
4451.761314
4428.657884
4465.217373
4445.433990
4444.393077
4446.848640
4474.211802
4473.053603
4461.978995
4471.742909
4457.940428
4424.357467
4469.657311
4403.193129
4446.917001
4436.076158
4440.961595
4468.033660
4448.113842
4456.129057
4444.687745
4431.604880
4414.257892
4413.179736
4410.369843
4447.164993
4437.279639
4423.512040
4421.009820
4431.967719
4432.307807
4428.793498
4437.240181
4434.623892
4441.236314
4451.542849
4455.884911
4462.377827
4441.305169
4466.364100
4479.439608
4461.066018
4450.882743
4455.469931
4445.904987
4383.137002
4442.400840
4389.293598
4470.145148
4409.332189
4472.152573
4445.793399
4456.499399
4429.954380
4430.154663
4415.451674
4407.845344
4402.281248
4424.941072
4424.016621
4424.782111
4425.756870
4425.886419
4426.498602
4426.729685
4427.166392
4427.395540
4427.859371
4427.924795
4428.227090
4428.102098
4428.612552
4408.118641
4422.344712
4421.906300
4423.304081
4424.362282
4424.697276
4425.614755
4425.748043
4426.555688
4426.731317
4427.333175
4427.568342
4427.856293
4427.721997
4430.807101
4413.279463
4422.722400
4421.599628
4423.449547
4424.524589
4424.738354
4425.898001
4425.861224
4426.903479
4426.690199
4427.789961
4427.411277
4428.174906
4428.589607
4429.687861
4416.320624
4423.760372
4422.690348
4424.120038
4424.774758
4425.368693
4426.137245
4426.282355
4427.222808
4427.108808
4428.093082
4427.736607
4429.305366
4428.535414
4431.724309
4419.603688
4424.419323
4423.976654
4424.569133
4425.553749
4425.652026
4426.661992
4426.708557
4427.547816
4427.510215
4428.350563
4428.092340
4429.214544
4428.229354
4431.555457
4421.289772
4425.301285
4424.967463
4425.133241
4426.327364
4426.041816
4427.347633
4426.886741
4428.177202
4427.757218
4428.855939
4428.503795
4429.332096
4428.471523
4429.783214
4422.970375
4426.107482
4425.748392
4426.024525
4426.745569
4426.750212
4427.621408
4427.533498
4428.507169
4428.204303
4429.208530
4428.827828
4429.500352
4428.589667
4429.930844
4424.385518
4426.831439
4426.460394
4426.750678
4427.256064
4427.423878
4428.004175
4428.183870
4428.665367
4428.935201
4429.542186
4429.318817
4430.735437
4428.797701
4430.208695
4425.545767
4427.404307
4427.242906
4427.348470
4427.858597
4427.892814
4428.541325
4428.471784
4429.371883
4429.184388
4429.999438
4430.085755
4430.706623
4430.623110
4431.201514
4426.741056
4427.969458
4427.852973
4427.941097
4428.383447
4428.421397
4428.969594
4429.078325
4429.583083
4429.746399
4430.533984
4430.692922
4431.604501
4431.820825
4431.452068
4427.553664
4428.536815
4428.344689
4428.612855
4428.723918
4429.043395
4429.247282
4429.562956
4429.868741
4430.389718
4430.535983
4431.206508
4432.043215
4432.527684
4433.316488
4428.453084
4429.003583
4428.811274
4429.170452
4429.105266
4429.547706
4429.584148
4430.032646
4430.238440
4430.475656
4431.127916
4431.565388
4432.201468
4432.689932
4433.290425
4429.240392
4429.337112
4429.407740
4429.508249
4429.632985
4429.840759
4430.016045
4430.315840
4430.458711
4431.002497
4431.155845
4431.448527
4432.238008
4433.218403
4432.287805
4438.960114
4430.364509
4446.115881
4403.583406
4439.109052
4456.777982
4440.328833
4456.697434
4472.814377
4449.025523
4496.992069
4448.713300
4425.436542
4461.889444
4401.307443
4405.969028
4429.915008
4429.654382
4429.827023
4429.897785
4430.039347
4430.155765
4430.421111
4430.552675
4430.873908
4431.024565
4431.237669
4432.089191
4431.745657
4433.086410
4434.020889
4436.679686
4446.175170
4435.905681
4435.898571
4454.235483
4421.789602
4471.835902
4434.449224
4460.677654
4428.697466
4461.091801
4512.493235
4364.799567
4468.109264
4420.016372
4407.111767
4430.456788
4429.959234
4430.221795
4430.265048
4430.340527
4430.543911
4430.655539
4430.858801
4431.060615
4431.235854
4431.642296
4431.477463
4431.909775
4431.929999
4431.193253
4435.175280
4432.248951
4424.343312
4447.442810
4428.947921
4411.611625
4444.533690
4441.984489
4457.232634
4456.103331
4428.639559
4417.194548
4399.066410
4479.360782
4432.998640
4405.334353
4430.966451
4430.284861
4430.456207
4430.623876
4430.634936
4430.843092
4430.888847
4431.215817
4431.172267
4431.582322
4431.474364
4431.966036
4432.078927
4432.117085
4432.382022
4426.833556
4431.675845
4425.473617
4436.013331
4441.791359
4460.134114
4443.644396
4456.604297
4463.753366
4447.622339
4459.484537
4463.382047
4395.705508
4477.274178
4471.316559
4401.768998
4431.402034
4430.537801
4430.731463
4430.975702
4430.791328
4431.212296
4431.096385
4431.417427
4431.412779
4431.778904
4431.550033
4432.324694
4431.068500
4432.506948
4430.882493
4433.768216
4426.305668
4443.458500
4420.847413
4450.865837
4400.413341
4426.782703
4436.196112
4428.984400
4459.677422
4448.377743
4459.127351
4434.130797
4379.460927
4484.978026
4412.679705
4431.738759
4430.774941
4430.934218
4431.171951
4431.066088
4431.430789
4431.256855
4431.754312
4431.568659
4431.918238
4432.071129
4431.936569
4432.980405
4433.303666
4432.066552
4421.283261
4455.712046
4402.506399
4422.521349
4420.256091
4403.297007
4424.556520
4451.473956
4440.405169
4431.658381
4451.423864
4451.038406
4436.904988
4414.458782
4444.849225
4393.319299
4432.031036
4430.963716
4431.165512
4431.364541
4431.293782
4431.550353
4431.605999
4431.793768
4431.834779
4432.231077
4431.917164
4432.958031
4431.823454
4433.076349
4436.011650
4440.258831
4430.942250
4438.549391
4450.519258
4458.738673
4435.862708
4406.638208
4452.179571
4416.141971
4429.553273
4452.514464
4401.341406
4449.766200
4407.831944
4459.348306
4357.162075
4432.302008
4431.095335
4431.358044
4431.497465
4431.464049
4431.759553
4431.689978
4432.041855
4432.040416
4432.312634
4432.463671
4432.523788
4433.602355
4433.974960
4432.539073
4435.030889
4421.548800
4428.496455
4420.534006
4416.910349
4445.864573
4405.483369
4416.700344
4437.332338
4447.130235
4459.463404
4425.674904
4444.255338
4439.822423
4429.523137
4491.453843
4432.569059
4431.176162
4431.625746
4431.565201
4431.686062
4431.792759
4431.928294
4432.101616
4432.267246
4432.328115
4432.828703
4432.887559
4433.040822
4433.982668
4435.200881
4419.453065
4435.578802
4442.262015
4440.616107
4432.604555
4418.836844
4431.383919
4418.317469
4403.554456
4428.004964
4442.420746
4431.285766
4445.033770
4462.362115
4401.808395
4477.927271
4432.766186
4431.260384
4431.794305
4431.603912
4431.911507
4431.762727
4432.214399
4431.985860
4432.535314
4432.529036
4432.688960
4432.996456
4433.839497
4433.895119
4436.268123
4409.060715
4405.682784
4396.546736
4417.407053
4423.890609
4437.486657
4405.971999
4416.939051
4413.711184
4399.056185
4444.782156
4415.337039
4477.473435
4468.097860
4377.540945
4451.391027
4432.952538
4431.319043
4432.007720
4431.656345
4432.024304
4431.867225
4432.190288
4432.211050
4432.548453
4432.321746
4433.241624
4432.727024
4433.048138
4433.576000
4432.337515
4426.739582
4408.710732
4414.463087
4471.765584
4420.328745
4438.588954
4411.929867
4432.200169
4422.262733
4419.543370
4449.604441
4393.057064
4451.616104
4454.863154
4460.405032
4398.706796
4433.048088
4431.427351
4432.051761
4431.764491
4432.066549
4431.935836
4432.304026
4432.108312
4432.641570
4432.605374
4432.740836
4432.960823
4433.067076
4433.102485
4433.440302
4440.175787
4435.521755
4422.239609
4441.393007
4443.568046
4451.866171
4436.543448
4428.437072
4431.063909
4420.260628
4454.248505
4438.113053
4481.347250
4490.227652
4486.133206
4454.614169
4433.074192
4431.585282
4432.067406
4431.902021
4432.077794
4432.007057
4432.250608
4432.303924
4432.490784
4432.567534
4432.912140
4432.955544
4432.906380
4432.936291
4432.511550
4421.329668
4432.262172
4419.767986
4431.392532
4446.683338
4457.496815
4453.644074
4439.405202
4444.384284
4434.603201
4459.021999
4464.003128
4434.696470
4447.183838
4453.208140
4452.716163
4433.061081
4431.695541
4432.031055
4432.022200
4431.988956
4432.222614
4432.101823
4432.382157
4432.461858
4432.620341
4432.894359
4432.692285
4433.676798
4433.483570
4433.376408
4433.176474
4454.777384
4421.605513
4419.711564
4418.118167
4441.728620
4461.296357
4413.608045
4394.300351
4470.633537
4450.646825
4455.373598
4440.291993
4437.757536
4445.546645
4448.617749
4433.068329
4431.756191
4432.044372
4432.121531
4431.991916
4432.212064
4432.144835
4432.414789
4432.347121
4432.751016
4432.491095
4433.434803
4432.526857
4434.149277
4434.816651
4441.691563
4427.465476
4443.600851
4420.703583
4439.313350
4443.105150
4456.099543
4430.897920
4440.840295
4437.273439
4423.019739
4440.777081
4452.261813
4465.366176
4461.420872
4452.817793
4433.032852
4431.734126
4432.119986
4432.047704
4432.115116
4432.171662
4432.178494
4432.350490
4432.380533
4432.605167
4432.789502
4432.731347
4433.445112
4433.822380
4432.596530
4445.395527
4447.634999
4429.994887
4441.660769
4448.319327
4453.382106
4427.180732
4440.286891
4436.912762
4449.569929
4440.422090
4448.662056
4445.372772
4440.850861
4446.509963
4450.836122
4433.113149
4431.630813
4432.311133
4431.945578
4432.265248
4432.039676
4432.362407
4432.125370
4432.606933
4432.284166
4432.905119
4432.853166
4433.459514
4433.088834
4435.534112
4416.778247
4444.334219
4422.040980
4438.630548
4439.689432
4451.279971
4445.553369
4422.579378
4415.385698
4448.068607
4436.161408
4428.823712
4453.088611
4453.488223
4455.071207
4450.856219
4433.107960
4431.612271
4432.336282
4431.958435
4432.324298
4431.987340
4432.431191
4432.072564
4432.520979
4432.286583
4432.734526
4432.604450
4433.169545
4433.156386
4434.558038
4427.721672
4441.073615
4414.718524
4438.544643
4414.539211
4426.578663
4422.642612
4442.561454
4440.716762
4459.334621
4441.949839
4441.263991
4436.051814
4430.700106
4456.558549
4447.601192
4433.054693
4431.729701
4432.270383
4432.072655
4432.221121
4432.177717
4432.252672
4432.223175
4432.360735
4432.237408
4432.612064
4432.384080
4432.879885
4433.417879
4431.926233
4421.309349
4428.531167
4417.116621
4445.400747
4410.452168
4458.437916
4406.333180
4406.877212
4431.074468
4444.667525
4461.108097
4450.995493
4450.385362
4465.408359
4460.497199
4452.299564
4432.961064
4431.783328
4432.158929
4432.185249
4432.154430
4432.247639
4432.203450
4432.282374
4432.226760
4432.318296
4432.109593
4432.660388
4431.715042
4432.861241
4433.277329
4438.373649
4444.646476
4434.393562
4421.164144
4442.774906
4442.133092
4436.160375
4452.069579
4439.352703
4425.818401
4427.864391
4456.591810
4450.953621
4445.779842
4460.941478
4445.477985
4432.973891
4431.829459
4432.156493
4432.239542
4432.122208
4432.322519
4432.170346
4432.343824
4432.119586
4432.385585
4432.076955
4431.990317
4432.352486
4431.984922
4430.708778
4431.621313
4430.448995
4421.766614
4416.796000
4431.912662
4413.097436
4432.651625
4434.063771
4427.212485
4444.646984
4444.275667
4444.932274
4445.946699
4456.680394
4454.304053
4450.421170
4432.930098
4431.869883
4432.080997
4432.312717
4432.077154
4432.391162
4432.124730
4432.390412
4432.223382
4432.093321
4432.192554
4432.019067
4431.492323
4431.311517
4431.222410
4433.780524
4424.876675
4438.361317
4417.632964
4428.793851
4440.949978
4447.652097
4451.326802
4441.166121
4441.940145
4420.084727
4452.155948
4438.169344
4441.404177
4444.372887
4448.168029
4432.889599
4431.883065
4432.076443
4432.296638
4432.113341
4432.364203
4432.214876
4432.372782
4432.131020
4432.518697
4431.833183
4432.154692
4431.565815
4431.248849
4430.854314
4436.036530
4415.990132
4428.949705
4423.877871
4423.203077
4427.411203
4455.309859
4445.438112
4452.324435
4413.287232
4439.702433
4438.431832
4436.997561
4445.009809
4444.513171
4445.889648