# vtk DataFile Version 2.0
mfree iwf
ASCII

DATASET UNSTRUCTURED_GRID
POINTS 9288 float
0.000000 0.000445 0.000000
0.000000 0.000450 0.000000
0.000000 0.000455 0.000000
0.000000 0.000460 0.000000
0.000000 0.000465 0.000000
0.000000 0.000470 0.000000
0.000000 0.000475 0.000000
0.000000 0.000480 0.000000
0.000000 0.000485 0.000000
0.000001 0.000490 0.000000
-0.000000 0.000496 0.000000
0.000002 0.000500 0.000000
0.000277 0.000679 0.000000
0.000279 0.000687 0.000000
0.000301 0.000728 0.000000
0.000305 0.000733 0.000000
0.000305 0.000733 0.000000
0.000308 0.000737 0.000000
0.000313 0.000744 0.000000
0.000312 0.000742 0.000000
0.000318 0.000753 0.000000
0.000335 0.000775 0.000000
0.000340 0.000779 0.000000
0.000343 0.000781 0.000000
0.000347 0.000784 0.000000
0.000352 0.000787 0.000000
0.000355 0.000789 0.000000
0.000361 0.000792 0.000000
0.000364 0.000794 0.000000
0.000369 0.000797 0.000000
0.000375 0.000801 0.000000
0.000397 0.000816 0.000000
0.000005 0.000445 0.000000
0.000005 0.000450 0.000000
0.000005 0.000455 0.000000
0.000005 0.000460 0.000000
0.000005 0.000465 0.000000
0.000005 0.000470 0.000000
0.000005 0.000475 0.000000
0.000005 0.000480 0.000000
0.000005 0.000485 0.000000
0.000006 0.000490 0.000000
0.000004 0.000496 0.000000
0.000006 0.000499 0.000000
0.000299 0.000723 0.000000
0.000311 0.000729 0.000000
0.000324 0.000757 0.000000
0.000328 0.000763 0.000000
0.000331 0.000766 0.000000
0.000334 0.000769 0.000000
0.000337 0.000771 0.000000
0.000340 0.000773 0.000000
0.000346 0.000777 0.000000
0.000350 0.000780 0.000000
0.000356 0.000784 0.000000
0.000361 0.000788 0.000000
0.000368 0.000790 0.000000
0.000374 0.000796 0.000000
0.000377 0.000798 0.000000
0.000382 0.000800 0.000000
0.000387 0.000808 0.000000
0.000390 0.000811 0.000000
0.000387 0.000808 0.000000
0.000395 0.000814 0.000000
0.000010 0.000445 0.000000
0.000011 0.000450 0.000000
0.000010 0.000455 0.000000
0.000011 0.000460 0.000000
0.000010 0.000466 0.000000
0.000010 0.000469 0.000000
0.000011 0.000475 0.000000
0.000011 0.000480 0.000000
0.000010 0.000486 0.000000
0.000012 0.000490 0.000000
0.000009 0.000497 0.000000
0.000011 0.000498 0.000000
0.000304 0.000723 0.000000
0.000314 0.000730 0.000000
0.000319 0.000744 0.000000
0.000322 0.000751 0.000000
0.000324 0.000754 0.000000
0.000327 0.000759 0.000000
0.000331 0.000753 0.000000
0.000337 0.000762 0.000000
0.000338 0.000766 0.000000
0.000344 0.000771 0.000000
0.000349 0.000773 0.000000
0.000354 0.000779 0.000000
0.000359 0.000777 0.000000
0.000364 0.000781 0.000000
0.000366 0.000787 0.000000
0.000372 0.000792 0.000000
0.000385 0.000801 0.000000
0.000386 0.000803 0.000000
0.000393 0.000809 0.000000
0.000400 0.000810 0.000000
0.000015 0.000445 0.000000
0.000016 0.000450 0.000000
0.000015 0.000456 0.000000
0.000016 0.000459 0.000000
0.000015 0.000465 0.000000
0.000016 0.000471 0.000000
0.000014 0.000475 0.000000
0.000016 0.000480 0.000000
0.000015 0.000485 0.000000
0.000017 0.000489 0.000000
0.000014 0.000495 0.000000
0.000017 0.000498 0.000000
0.000025 0.000500 0.000000
0.000314 0.000734 0.000000
0.000321 0.000746 0.000000
0.000325 0.000745 0.000000
0.000333 0.000757 0.000000
0.000331 0.000762 0.000000
0.000343 0.000762 0.000000
0.000344 0.000766 0.000000
0.000351 0.000766 0.000000
0.000353 0.000774 0.000000
0.000365 0.000775 0.000000
0.000360 0.000782 0.000000
0.000370 0.000784 0.000000
0.000374 0.000787 0.000000
0.000378 0.000790 0.000000
0.000379 0.000793 0.000000
0.000385 0.000795 0.000000
0.000392 0.000800 0.000000
0.000393 0.000804 0.000000
0.000402 0.000807 0.000000
0.000020 0.000445 0.000000
0.000021 0.000450 0.000000
0.000020 0.000456 0.000000
0.000021 0.000460 0.000000
0.000019 0.000466 0.000000
0.000022 0.000467 0.000000
0.000020 0.000475 0.000000
0.000022 0.000479 0.000000
0.000019 0.000486 0.000000
0.000021 0.000491 0.000000
0.000021 0.000497 0.000000
0.000022 0.000499 0.000000
0.000039 0.000500 0.000000
0.000320 0.000731 0.000000
0.000322 0.000737 0.000000
0.000326 0.000740 0.000000
0.000327 0.000750 0.000000
0.000335 0.000752 0.000000
0.000340 0.000758 0.000000
0.000348 0.000768 0.000000
0.000347 0.000760 0.000000
0.000356 0.000770 0.000000
0.000362 0.000767 0.000000
0.000370 0.000773 0.000000
0.000372 0.000779 0.000000
0.000375 0.000783 0.000000
0.000381 0.000785 0.000000
0.000389 0.000790 0.000000
0.000389 0.000795 0.000000
0.000397 0.000798 0.000000
0.000398 0.000803 0.000000
0.000404 0.000804 0.000000
0.000025 0.000445 0.000000
0.000025 0.000450 0.000000
0.000026 0.000454 0.000000
0.000025 0.000459 0.000000
0.000025 0.000466 0.000000
0.000026 0.000471 0.000000
0.000023 0.000476 0.000000
0.000027 0.000480 0.000000
0.000024 0.000485 0.000000
0.000026 0.000488 0.000000
0.000027 0.000492 0.000000
0.000027 0.000500 0.000000
0.000288 0.000704 0.000000
0.000318 0.000735 0.000000
0.000318 0.000740 0.000000
0.000331 0.000748 0.000000
0.000336 0.000746 0.000000
0.000339 0.000754 0.000000
0.000349 0.000753 0.000000
0.000344 0.000754 0.000000
0.000352 0.000762 0.000000
0.000357 0.000765 0.000000
0.000358 0.000773 0.000000
0.000364 0.000771 0.000000
0.000368 0.000779 0.000000
0.000379 0.000780 0.000000
0.000385 0.000789 0.000000
0.000385 0.000784 0.000000
0.000394 0.000795 0.000000
0.000394 0.000789 0.000000
0.000401 0.000798 0.000000
0.000407 0.000799 0.000000
0.000030 0.000445 0.000000
0.000031 0.000450 0.000000
0.000029 0.000458 0.000000
0.000033 0.000461 0.000000
0.000029 0.000464 0.000000
0.000031 0.000469 0.000000
0.000031 0.000472 0.000000
0.000031 0.000477 0.000000
0.000031 0.000486 0.000000
0.000031 0.000492 0.000000
0.000033 0.000497 0.000000
0.000031 0.000499 0.000000
0.000049 0.000500 0.000000
0.000314 0.000724 0.000000
0.000330 0.000735 0.000000
0.000331 0.000742 0.000000
0.000335 0.000742 0.000000
0.000341 0.000749 0.000000
0.000350 0.000756 0.000000
0.000357 0.000759 0.000000
0.000356 0.000755 0.000000
0.000365 0.000763 0.000000
0.000369 0.000769 0.000000
0.000374 0.000774 0.000000
0.000379 0.000773 0.000000
0.000381 0.000778 0.000000
0.000386 0.000779 0.000000
0.000389 0.000785 0.000000
0.000399 0.000787 0.000000
0.000399 0.000792 0.000000
0.000404 0.000794 0.000000
0.000409 0.000796 0.000000
0.000035 0.000445 0.000000
0.000035 0.000450 0.000000
0.000038 0.000454 0.000000
0.000034 0.000456 0.000000
0.000035 0.000466 0.000000
0.000037 0.000471 0.000000
0.000032 0.000479 0.000000
0.000041 0.000479 0.000000
0.000035 0.000483 0.000000
0.000034 0.000488 0.000000
0.000038 0.000491 0.000000
0.000036 0.000498 0.000000
0.000275 0.000666 0.000000
0.000286 0.000702 0.000000
0.000326 0.000729 0.000000
0.000335 0.000737 0.000000
0.000343 0.000745 0.000000
0.000345 0.000741 0.000000
0.000347 0.000749 0.000000
0.000353 0.000750 0.000000
0.000360 0.000761 0.000000
0.000362 0.000756 0.000000
0.000371 0.000764 0.000000
0.000374 0.000767 0.000000
0.000378 0.000769 0.000000
0.000389 0.000775 0.000000
0.000391 0.000781 0.000000
0.000396 0.000779 0.000000
0.000396 0.000785 0.000000
0.000403 0.000787 0.000000
0.000407 0.000790 0.000000
0.000412 0.000792 0.000000
0.000040 0.000445 0.000000
0.000040 0.000450 0.000000
0.000038 0.000460 0.000000
0.000042 0.000457 0.000000
0.000040 0.000465 0.000000
0.000040 0.000469 0.000000
0.000042 0.000475 0.000000
0.000037 0.000476 0.000000
0.000042 0.000487 0.000000
0.000042 0.000492 0.000000
0.000042 0.000497 0.000000
0.000045 0.000498 0.000000
0.000271 0.000550 0.000000
0.000309 0.000725 0.000000
0.000321 0.000726 0.000000
0.000338 0.000728 0.000000
0.000340 0.000741 0.000000
0.000348 0.000745 0.000000
0.000354 0.000746 0.000000
0.000358 0.000751 0.000000
0.000366 0.000753 0.000000
0.000368 0.000762 0.000000
0.000371 0.000757 0.000000
0.000379 0.000764 0.000000
0.000382 0.000769 0.000000
0.000389 0.000770 0.000000
0.000385 0.000774 0.000000
0.000394 0.000776 0.000000
0.000400 0.000780 0.000000
0.000405 0.000782 0.000000
0.000410 0.000786 0.000000
0.000415 0.000788 0.000000
0.000045 0.000445 0.000000
0.000046 0.000450 0.000000
0.000045 0.000455 0.000000
0.000046 0.000460 0.000000
0.000045 0.000466 0.000000
0.000046 0.000471 0.000000
0.000046 0.000478 0.000000
0.000040 0.000483 0.000000
0.000051 0.000485 0.000000
0.000046 0.000483 0.000000
0.000048 0.000493 0.000000
0.000050 0.000498 0.000000
0.000271 0.000557 0.000000
0.000299 0.000720 0.000000
0.000326 0.000735 0.000000
0.000340 0.000735 0.000000
0.000342 0.000735 0.000000
0.000352 0.000741 0.000000
0.000360 0.000745 0.000000
0.000361 0.000749 0.000000
0.000367 0.000752 0.000000
0.000375 0.000755 0.000000
0.000376 0.000760 0.000000
0.000385 0.000765 0.000000
0.000381 0.000759 0.000000
0.000392 0.000768 0.000000
0.000396 0.000771 0.000000
0.000400 0.000774 0.000000
0.000405 0.000776 0.000000
0.000408 0.000779 0.000000
0.000412 0.000782 0.000000
0.000417 0.000783 0.000000
0.000050 0.000445 0.000000
0.000051 0.000450 0.000000
0.000049 0.000455 0.000000
0.000051 0.000460 0.000000
0.000049 0.000465 0.000000
0.000051 0.000474 0.000000
0.000051 0.000470 0.000000
0.000051 0.000478 0.000000
0.000047 0.000488 0.000000
0.000053 0.000491 0.000000
0.000058 0.000492 0.000000
0.000053 0.000498 0.000000
0.000271 0.000605 0.000000
0.000301 0.000715 0.000000
0.000312 0.000721 0.000000
0.000334 0.000731 0.000000
0.000348 0.000733 0.000000
0.000349 0.000737 0.000000
0.000358 0.000737 0.000000
0.000356 0.000742 0.000000
0.000371 0.000745 0.000000
0.000366 0.000747 0.000000
0.000377 0.000753 0.000000
0.000385 0.000756 0.000000
0.000385 0.000760 0.000000
0.000390 0.000763 0.000000
0.000396 0.000766 0.000000
0.000400 0.000768 0.000000
0.000404 0.000771 0.000000
0.000410 0.000774 0.000000
0.000415 0.000778 0.000000
0.000420 0.000779 0.000000
0.000055 0.000445 0.000000
0.000056 0.000450 0.000000
0.000055 0.000455 0.000000
0.000056 0.000460 0.000000
0.000055 0.000465 0.000000
0.000056 0.000470 0.000000
0.000055 0.000476 0.000000
0.000058 0.000481 0.000000
0.000053 0.000483 0.000000
0.000057 0.000487 0.000000
0.000056 0.000497 0.000000
0.000060 0.000497 0.000000
0.000272 0.000630 0.000000
0.000296 0.000718 0.000000
0.000306 0.000719 0.000000
[...]
POINT_DATA 9288
SCALARS density float 1
LOOKUP_TABLE default
4430.002490
4429.274498
4426.721971
4426.066282
4422.735232
4429.969877
4444.191185
4435.710136
4442.830769
4423.078512
4432.334556
4397.949011
4431.514022
4441.647460
4448.250077
4429.717378
4440.876002
4444.924452
4452.435810
4453.093704
4433.324398
4427.777731
4406.848503
4447.317378
4426.609826
4422.136307
4446.808396
4434.245571
4420.783418
4453.576361
4439.266947
4447.974369
4429.632657
4427.246309
4427.104713
4433.749906
4439.280271
4413.835794
4406.205430
4411.465398
4409.134008
4418.135234
4445.367051
4400.290000
4422.069018
4443.902367
4410.066472
4420.419926
4411.746355
4411.004503
4431.489530
4451.214244
4423.266779
4438.382106
4429.683184
4397.547591
4434.605093
4396.724999
4391.922479
4416.529334
4408.192702
4416.881797
4410.566811
4418.940572
4423.529209
4434.391180
4438.612995
4411.463823
4433.714884
4433.361413
4464.714600
4411.160737
4476.962403
4368.646126
4474.131563
4405.662227
4396.487199
4468.314650
4436.862525
4389.549392
4416.199901
4425.008722
4433.603816
4392.523759
4442.715382
4402.596988
4409.864181
4412.631778
4400.384375
4419.729319
4448.615602
4392.988101
4444.000586
4424.605583
4449.254488
4406.527149
4433.039719
4448.099700
4449.469549
4438.427537
4437.692580
4377.775642
4455.132043
4358.479332
4471.746796
4388.714215
4513.796085
4398.330683
4436.675312
4345.725191
4435.566482
4436.053655
4401.435354
4474.006800
4450.422107
4422.224719
4431.120761
4427.983481
4424.405648
4457.443645
4412.644476
4456.363934
4452.644870
4499.099195
4446.855449
4368.411982
4521.480001
4449.014318
4435.067352
4413.860642
4431.691402
4404.178414
4465.330586
4444.084681
4455.121366
4452.074170
4471.385307
4366.730091
4475.477105
4440.726529
4420.311026
4386.655204
4465.551181
4383.296431
4525.514346
4445.913593
4433.993591
4456.973244
4408.619804
4414.214893
4413.061265
4441.037651
4427.309135
4410.221681
4377.895298
4462.396804
4445.608276
4442.571092
4329.926407
4447.241242
4427.641039
4432.786433
4422.373795
4444.770163
4441.656843
4388.501017
4462.965399
4366.323399
4432.026422
4461.523946
4410.937476
4425.777920
4431.767720
4488.231517
4369.877348
4353.387469
4466.741312
4438.186837
4448.563788
4423.882625
4414.578507
4437.835979
4461.104960
4432.568575
4445.063357
4445.917564
4370.644492
4472.014757
4457.088812
4382.399869
4445.877110
4415.854358
4434.487194
4416.145662
4428.218113
4436.383774
4417.518233
4454.348667
4437.436343
4461.157502
4446.984624
4401.984017
4459.988963
4422.215545
4422.109515
4429.258094
4445.742085
4470.033501
4433.443205
4385.934100
4441.940822
4451.321116
4423.015594
4427.729738
4423.527803
4414.957494
4414.122137
4425.070904
4403.017722
4441.305202
4470.626645
4405.926237
4408.482651
4439.292904
4437.655249
4422.500166
4423.763771
4415.933060
4422.838935
4403.705126
4448.092350
4449.130975
4416.259831
4427.489705
4411.827461
4447.601516
4434.302959
4428.286339
4421.249588
4378.233831
4454.797456
4427.165545
4438.638286
4410.756116
4447.284499
4382.540105
4433.196986
4415.199317
4460.593940
4438.525264
4415.332209
4458.698054
4428.846642
4443.535468
4414.594871
4424.692199
4425.827196
4434.250333
4439.237099
4401.661931
4427.761907
4450.890656
4451.731078
4409.452198
4453.355129
4432.568312
4433.605166
4421.687815
4634.022670
4369.021839
4446.266431
4444.912000
4398.387212
4428.182749
4431.569990
4450.807603
4460.438536
4444.791533
4421.266595
4426.390585
4431.247421
4425.568924
4440.873777
4436.762240
4387.936760
4418.500860
4420.284764
4437.263068
4428.903668
4409.044503
4438.392962
4424.093154
4439.232177
4390.772879
4434.074544
4430.677368
4459.204241
4408.104849
4467.314479
4440.598882
4503.280971
4412.475428
4435.965168
4465.044212
4445.515745
4438.966352
4408.232257
4436.273240
4445.780600
4437.443340
4418.382848
4418.282618
4410.906461
4421.570971
4412.043842
4434.597973
4446.474992
4463.253855
4420.348545
4416.120315
4434.018159
4420.939067
4432.386807
4438.616574
4415.529486
4454.084714
4445.748605
4402.415833
4386.197969
4406.691325
4537.260138
4413.870078
4449.547298
4476.934020
4446.591239
4445.861244
4431.791731
4426.104969
4426.712749
4450.670304
4450.490735
4411.727917
4455.541152
4430.848681
4447.515994
4442.990188
4450.189363
4456.483978
4436.989779
4402.442647
4430.827922
4431.231513
4431.246781
4428.995191
4417.985956
4432.215070
4414.307253
4447.262886
4395.750822
4422.158379
4484.447273
4353.125245
4419.949936
4391.077931
4428.574747
4412.444283
4508.622961
4432.656276
4457.152230
4428.431520
4409.118063
4457.035340
4414.953036
4448.530602
4437.292737
4413.280590
4423.464720
4414.308920
4422.176158
4423.871917
4454.383209
4433.123947
4432.707787
4417.467755
4427.278763
4410.515036
4443.869786
4398.089497
4449.891127
4422.735057
4422.880441
4421.295351
4480.163592
4416.673986
4445.180183
4434.871287
4413.045623
4431.460575
4443.797732
4398.441390
4383.741041
4427.557500
4439.822685
4452.215608
4408.879584
4445.248940
4406.914277
4449.936553
4430.514340
4441.181596
4442.904077
4460.368274
4412.780950
4421.508709
4422.068281
4431.523550
4436.476504
4418.423121
4417.102298
4433.372398
4440.595892
4410.586095
4461.250384
4405.577531
4443.631912
4357.063361
4469.571352
4430.393107
4510.784832
4426.537015
4431.060208
4393.294888
4431.935252
4424.454628
4435.503322
4455.478069
4403.675154
4445.501548
4441.913428
4441.291357
4398.347479
4442.196919
4397.843270
4440.003432
4431.029790
4439.984486
4423.872269
4425.548362
4422.519466
4425.959226
4425.265648
4404.973961
4415.957929
4441.576836
4422.137674
4438.427289
4386.847686
4391.782956
4433.976826
4461.208019
4632.994910
4422.789243
4415.162801
4463.802935
4451.072232
4406.075457
4448.156732
4458.840040
4388.071473
4449.677047
4406.417630
4428.451358
4393.088949
4447.834942
4428.207517
4442.108476
4422.789591
4422.516874
4425.094990
4427.908506
4442.477053
4417.751104
4417.324693
4446.592638
4432.530549
4391.431021
4434.257570
4455.534167
4489.065144
4351.646070
4424.666952
4453.325141
4423.182226
4419.963633
4428.930647
4363.409182
4442.269355
4487.337526
4439.632083
4436.939756
4430.022832
4491.539902
4427.928210
4435.067851
4469.449851
4452.541541
4441.947332
4416.097263
4418.470339
4434.297301
4423.487649
4425.189579
4425.715840
4422.987891
4446.490489
4405.412932
4432.816423
4463.736969
4435.673094
4410.190984
4456.913247
4495.594333
4411.540516
4419.913522
4419.591009
4436.842615
4473.009327
4433.940519
4444.389900
4430.717558
4447.367003
4417.297466
4400.934000
4483.407725
4404.360042
4445.195542
4445.239374
4442.388238
4412.448397
4442.542299
4438.176624
4437.593126
4427.715422
4427.068475
4446.728340
4425.445515
4419.233351
4452.049537
4449.635954
4383.780607
4452.182665
4437.618348
4381.557473
4381.489710
4441.927348
4462.860326
4494.393461
4487.491569
4478.974216
4432.974680
4427.180226
4383.027006
4465.982556
4465.107215
4448.162492
4480.308156
4445.937169
4408.241539
4415.894150
4461.567830
4410.815423
4430.184302
4408.218139
4425.863845
4430.068857
4430.288608
4415.526831
4431.572629
4453.804962
4402.059217
4409.691313
4454.266785
4456.134561
4454.714436
4432.467057
4437.735189
4396.811373
4423.698211
4412.599843
4418.612855
4424.426774
4394.393585
4429.589799
4408.241116
4449.978858
4408.872780
4398.522358
4421.054350
4430.008784
4418.649803
4464.556109
4410.819677
4465.768584
4427.567951
4452.299060
4440.873410
4414.199997
4427.273549
4446.777420
4429.953699
4404.178823
4446.398378
4428.556435
4423.506657
4418.319107
4413.764036
4472.488192
4439.513181
4427.155365
4431.375456
4404.587706
4411.706940
4477.522992
4433.093054
4410.720825
4447.107590
4435.990486
4384.897334
4492.984738
4403.349675
4433.815966
4403.538713
4462.008033
4403.426290
4424.459606
4414.915695
4407.179902
4430.272100
4428.349424
4426.623210
4416.162086
4421.045462
4436.989826
4406.928146
4425.159822
4421.913569
4392.397214
4386.315173
4457.899154
4489.926458
4373.800610
4559.954083
4422.794066
4414.608804
4446.828522
4467.847138
4419.228380
4439.474306
4408.258900
4468.680806
4438.419186
4483.365752
4450.639061
4426.513398
4443.460819
4453.104618
4413.100276
4483.377211
4440.368592
4404.943087
4439.540918
4420.892773
4448.489806
4445.625610
4411.758378
4423.241163
4450.399579
4424.292192
4432.556077
4419.411149
4473.577042
4384.531942
4427.760266
4428.570497
4455.699268
4425.173532
4428.631508
4422.150364
4439.178198
4470.033704
4491.461106
4461.237919
4409.134280
4357.820648
4439.378257
4472.711044
4448.902513
4419.949279
4432.200681
4422.554336
4423.667350
4427.586908
4428.379963
4435.097607
4424.091093
4426.357840
4439.793861
4445.292132
4408.411547
4405.374418
4439.390307
4402.590892
4450.431498
4378.057787
4367.435402
4489.408587
4424.788139
4434.923267
4442.654246
4410.372374
4451.245742
4447.663782
4426.455684
4420.578601
4390.176395
4391.926713
4375.210657
4453.017396
4413.727383
4414.080014
4458.863483
4437.709990
4471.304467
4422.469216
4407.577609
4426.680063
4440.695159
4440.355734
4402.051313
4412.845470
4426.638326
4420.248407
4419.777732
4430.307149
4459.513132
4458.128164
4419.697731
4428.525754
4375.761124
4441.600419
4368.006364
4324.316995
4484.419496
4461.287996
4430.218754
4421.319205
4443.730505
4433.114819
4403.690339
4402.363660
4460.505424
4448.292066
4421.226117
4434.242153
4420.399025
4410.906475
4453.089350
4424.018484
4419.066761
4428.748690
4428.353470
4428.805562
4429.319546
4429.383954
4429.776535
4429.832839
4430.172120
4430.260537
4430.684094
4430.736983
4430.943762
4430.927539
4430.108541
4422.139018
4427.810687
4427.689257
4428.559409
4428.983796
4429.232816
4429.764368
4429.740940
4430.226708
4430.048772
4430.313189
4430.227644
4430.513891
4430.673367
4430.423950
4424.498614
4427.699195
4427.364430
4427.987303
4428.673457
4428.639623
4429.209715
4429.113825
4429.687981
4429.534708
4430.307046
4429.884141
4429.985020
4429.878896
4429.345444
4425.561442
4427.905036
4427.772506
4428.288439
4428.700121
4428.879254
4429.287469
4429.365970
4429.593540
4429.465003
4429.450183
4429.063990
4429.556122
4428.356644
4429.512789
4426.820864
4428.046910
4427.914749
4428.016605
4428.495923
4428.341922
4428.924276
4428.640215
4429.202756
4429.014245
4429.607398
4429.154006
4429.497704
4427.935790
4428.189949
4427.094105
4428.260569
4428.245243
4428.127605
4428.887438
4428.479974
4429.233793
4428.800585
4429.518096
4428.707163
4429.243824
4428.498191
4428.588339
4427.941335
4428.563550
4427.381860
4428.448244
4428.066336
4428.279929
4428.312003
4428.331979
4428.599446
4428.537634
4428.694367
4428.944563
4429.129508
4428.976536
4429.123557
4427.687190
4428.295803
4427.616561
4428.648484
4428.171599
4428.447908
4428.540851
4428.723780
4428.687191
4428.937032
4428.965060
4428.832039
4428.805416
4428.572461
4428.820976
4427.649810
4428.858820
4427.533103
4428.568022
4428.184245
4428.225001
4428.336369
4428.118509
4428.541773
4428.249437
4428.658804
4428.616811
4429.335819
4429.074713
4429.592845
4429.090143
4428.143503
4427.822359
4428.643185
4428.251312
4428.374141
4428.521530
4428.514129
4428.643926
4428.650933
4428.774899
4428.816334
4428.581358
4429.189505
4429.226198
4429.862369
4431.133795
4427.482491
4428.613211
4428.101841
4428.183528
4428.118998
4428.130693
4428.118851
4428.182992
4428.277949
4428.468858
4429.177807
4429.090179
4430.531389
4430.036870
4431.095923
4427.562329
4428.711574
4427.992342
4428.386591
4428.306650
4428.275950
4428.443197
4428.263986
4428.591664
4428.325926
4428.516762
4428.524843
4429.352481
4429.867949
4431.161229
4427.552583
4428.478038
4428.078803
4428.075442
4427.858325
4428.004041
4427.773362
4427.983742
4427.807768
4428.224559
4428.204759
4428.701848
4428.926047
4429.640487
4430.081990
4434.345445
4435.438847
4423.311068
4455.199975
4445.937763
4449.220224
4430.998604
4429.978691
4421.406680
4424.250123
4411.448923
4456.222484
4411.719887
4447.333757
4423.042475
4411.971951
4427.520366
4428.474914
4428.036081
4428.033243
4428.223514
4427.963900
4428.113873
4427.997034
4428.002336
4427.724926
4427.694608
4427.576948
4427.214382
4428.133304
4428.107812
4425.644212
4452.110697
4418.259288
4421.884835
4417.237865
4435.164247
4422.188612
4442.427605
4450.792623
4440.189043
4413.865668
4448.087892
4421.448769
4457.854767
4393.812255
4399.281533
4427.150561
4428.226657
4428.000112
4427.759591
4427.853585
4427.341654
4427.899554
4426.970675
4427.705769
4427.089724
4427.745514
4427.062914
4427.838416
4426.162465
4427.979036
4420.806895
4443.987875
4434.571014
4414.235865
4399.330071
4445.017228
4432.462666
4431.239385
4403.909927
4399.325796
4446.640702
4416.843001
4413.444366
4453.930275
4370.619844
4440.567928
4427.207255
4428.228063
4428.043317
4427.577957
4428.105741
4427.613862
4427.729439
4427.543907
4427.554938
4426.887954
4427.227817
4426.007070
4426.663747
4423.984410
4427.054184
4416.948558
4413.180508
4404.753561
4373.123352
4395.897108
4447.541401
4427.916765
4453.923761
4450.564381
4414.275903
4429.057640
4419.550145
4395.894720
4415.345737
4407.236610
4425.280508
4426.760755
4428.262938
4427.551512
4427.792240
4427.438168
4427.139304
4427.447230
4426.794374
4427.030482
4426.873667
4426.640140
4426.000450
4425.963076
4423.999170
4422.128104
4442.149227
4456.591411
4421.695441
4428.985252
4456.122804
4429.258235
4481.286833
4442.754753
4399.525779
4413.401338
4442.995500
4450.573957
4403.965916
4367.900740
4437.687153
4409.997924
4426.736292
4428.260928
4427.573896
4427.688560
4427.428779
4427.674608
4427.235308
4427.310042
4427.162803
4426.436393
4426.295415
4425.774183
4424.826375
4423.786867
4422.809861
4418.055747
4395.043639
4450.666385
4438.841165
4490.689092
4377.540956
4452.075410
4415.674828
4414.018362
4386.960253
4364.223504
4446.793837
4403.918035
4452.314235
4440.974182
4426.641715
4426.815404
4427.913879
4427.739966
4427.235887
4427.535782
4426.907422
4427.094614
4427.052017
4426.351556
4427.011116
4425.860692
4425.857745
4425.511501
4423.950387
4423.611165
4450.774584
4442.750356
4448.650675
4381.913321
4336.815917
4441.469438
4583.200836
4424.034646
4445.765360
4416.967648
4409.427752
4424.010954
4493.271927
4440.512235
4483.732440
4414.670207
4426.598621
4428.069015
4427.470644
4427.573770
4427.344444
4427.319194
4427.550404
4426.628443
4427.458056
4425.879563
4426.749486
4425.547446
4425.524260
4425.378817
4424.878982
4435.302206
4421.083892
4432.418634
4404.127952
4406.866467
4460.891337
4442.085687
4490.294617
4398.326391
4411.964344
4433.006732
4413.918779
4393.805015
4452.705466
4408.450411
4425.565727
4426.451769
4427.800558
4427.633366
4426.971941
4427.650954
4426.783852
4427.295080
4426.687730
4426.988366
4426.369882
4426.599145
4426.190580
4426.337297
4426.170755
4426.540711
4430.167992
4455.117279
4398.867286
4438.470249
4409.170827
4433.143000
4423.878157
4446.451940
4420.806838
4446.909781
4426.535652
4397.005980
4409.795959
4448.871181
4402.793483
4418.940833
4426.513453
4427.714723
4427.766950
4427.065163
4427.784118
4426.927133
4427.542787
4426.870297
4426.678174
4426.505996
4426.520249
4425.535477
4427.002390
4425.040944
4426.678564
4426.802982
4426.171445
4441.832518
4440.976779
4377.052126
4404.114157
4560.261377
4456.203312
4444.667878
4425.664795
4435.391915
4456.598620
4400.314563
4446.231785
4425.932990
4432.726220
4426.419232
4427.905785
4427.338721
4427.442725
4427.099905
4427.105504
4427.094963
4426.209974
4427.277690
4425.813207
4426.738807
4426.374056
4425.811515
4424.906206
4425.509324
4430.979365
4413.925382
4442.349807
4417.208511
4445.339484
4430.162253
4457.721512
4446.398566
4427.901186
4465.588025
4398.082011
4448.661707
4439.677173
4443.171428
4373.147140
4406.420700
4426.482708
4427.816686
4427.537065
4426.999468
4427.656023
4426.733256
4427.216761
4426.860786
4426.440511
4426.629072
4426.826402
4425.638097
4426.326885
4424.962235
4423.063348
4439.338632
4453.827721
4420.964302
4424.220650
4398.553114
4419.760629
4486.702101
4476.815811
4485.854182
4460.126885
4456.116919
4393.494356
4425.405608
4386.945505
4294.223469
4440.177154
4426.537327
4427.598161
4427.747840
4426.881089
4427.403700
4426.658611
4427.167538
4426.338709
4427.281273
4426.760699
4426.611528
4426.556146
4426.244723
4425.816157
4426.403124
4431.066597
4425.582331
4430.448653
4423.170900
4390.309464
4447.884780
4537.242053
4424.905601
4412.589414
4413.010760
4459.363087
4449.206924
4408.793584
4428.550286
4502.247820
4452.895895
4426.426628
4427.951072
4427.213939
4427.461850
4427.154611
4427.137131
4427.379716
4426.997379
4427.289736
4426.226511
4427.137496
4425.903589
4426.640277
4425.073783
4427.112130
4433.829215
4415.930957
4441.747351
4424.550072
4380.287310
4353.513002
4409.611873
4478.775916
4454.776077
4453.272199
4432.091486
4433.695005
4426.184347
4422.775426
4416.190311
4436.772750
4426.177090
4427.869809
4427.463014
4426.895854
4427.589465
4426.990853
4427.129309
4427.009823
4426.646690
4426.968510
4426.098003
4426.397826
4426.957536
4427.007208
4425.551766
4436.372292
4430.989170
4427.256821
4453.716856
4440.889361
4560.289947
4587.674122
4505.093228
4447.747859
4464.957213
4477.426518
4453.825703
4430.250266
4413.601245
4402.249524
4424.226045
4426.324024
4427.807121
4427.425914
4427.553471
4427.365609
4427.233709
4427.501508
4426.808871
4427.244975
4426.172002
4427.244780
4426.645109
4427.032577
4427.624053
4426.315728
4437.458412
4439.324013
4440.270210
4422.331547
4409.505851
4480.220942
4485.223250
4475.312426
4442.309082
4454.938326
4462.828020
4457.576943
4453.759077
4393.102946
4426.866296
4422.391328
4426.259040
4428.086170
4427.315873
4427.412325
4427.405118
4427.351877
4427.265022
4427.177955
4427.177950
4427.276294
4426.890348
4427.204891
4427.416402
4427.053867
4429.583632
4429.914005
4429.115240
4407.830036
4416.208337
4464.576545
4458.303736
4461.821004
4496.952121
4462.682099
4445.274504
4415.788204
4477.358329
4442.377538
4423.551935
4372.312830
4404.880204
4426.291363
4427.861944
4427.593653
4427.325160
4427.745881
4427.188152
4427.474009
4427.156320
4426.989199
4426.393634
4426.916236
4426.214061
4427.023025
4426.713610
4425.053066
4441.754895
4420.787857
4441.936843
4431.343579
4443.722239
4479.405243
4465.085233
4460.722416
4465.087805
4465.475589
4456.809474
4432.895878
4483.923151
4455.928106
4414.210450
4404.415182
4426.410874
4427.842100
4427.701917
4427.448736
4427.432840
4427.092548
4427.366470
4426.472215
4426.997251
4426.399052
4426.872166
4426.272533
4427.243173
4425.536251
4426.537872
4426.784253
4438.646316
4426.083996
4440.943496
4416.631818
4424.404010
4430.342647
4479.180553
4456.337334
4431.844031
4416.092061
4498.751817
4401.092904
4463.535662
4453.599889
4416.240463
4426.284160
4428.182868
4427.502310
4427.448908
4427.582592
4427.272878
4427.283375
4427.270516
4427.075154
4426.936341
4426.430755
4427.038453
4425.177436
4424.384948
4426.972698
4427.816803
4433.495595
4462.275865
4403.955047
4437.695113
4450.493031
4443.629703
4443.114330
4451.109700
4447.565951
4472.432770
4418.523413
4434.356182
4435.906109
4387.950026
4404.856057
4426.239853
4428.061027
4427.605118
4427.528708
4427.620480
4427.352762
4427.739957
4427.261683
4427.429947
4427.016228
4427.420997
4424.999552
4426.943056
4426.772851
4421.992938
4429.438687
4439.323153
4443.134497
4426.415683
4450.962057
4410.285076
4455.773779
4425.653752
4454.043152
4454.541790
4473.216564
4470.015553
4459.269522
4436.890157
4474.421995
4409.448561
4426.365992
4428.223508
4427.745647
4427.863725
4427.724339
4427.904478
4427.541480
4427.391661
4427.345337
4426.721955
4425.444011
4426.594103
4425.214310
4424.504431
4426.251323
4418.735852
4442.547655
4428.927832
4409.115855
4428.235394
4450.376631
4444.759765
4456.662652
4426.689524
4452.002747
4444.785404
4435.875007
4452.705954
4413.384549
4460.940234
4403.276271
4426.556665
4428.513725
4427.626930
4428.099181
4427.662232
4427.898234
4427.281384
4427.993535
4426.441200
4427.683070
4425.948260
4425.407339
4424.693335
4425.960494
4426.536077
4437.416128
4421.969450
4427.020838
4425.283392
4426.341751
4415.541830
4442.820955
4417.650412
4455.988826
4450.743088
4473.409042
4451.445517
4430.631371
4426.706081
4397.941807
4400.524206