# vtk DataFile Version 2.0
mfree iwf
ASCII

DATASET UNSTRUCTURED_GRID
POINTS 8856 float
0.000000 0.000445 0.000000
0.000000 0.000450 0.000000
0.000000 0.000455 0.000000
0.000000 0.000460 0.000000
0.000001 0.000465 0.000000
0.000001 0.000470 0.000000
0.000001 0.000475 0.000000
0.000001 0.000480 0.000000
0.000001 0.000485 0.000000
0.000001 0.000490 0.000000
0.000000 0.000496 0.000000
0.000002 0.000500 0.000000
0.000185 0.000583 0.000000
0.000185 0.000592 0.000000
0.000187 0.000636 0.000000
0.000188 0.000643 0.000000
0.000188 0.000643 0.000000
0.000188 0.000648 0.000000
0.000190 0.000656 0.000000
0.000190 0.000655 0.000000
0.000191 0.000667 0.000000
0.000196 0.000694 0.000000
0.000198 0.000699 0.000000
0.000201 0.000703 0.000000
0.000203 0.000707 0.000000
0.000206 0.000712 0.000000
0.000208 0.000715 0.000000
0.000211 0.000721 0.000000
0.000213 0.000724 0.000000
0.000216 0.000729 0.000000
0.000220 0.000735 0.000000
0.000234 0.000759 0.000000
0.000005 0.000445 0.000000
0.000006 0.000450 0.000000
0.000005 0.000455 0.000000
0.000006 0.000460 0.000000
0.000005 0.000465 0.000000
0.000006 0.000470 0.000000
0.000006 0.000475 0.000000
0.000006 0.000480 0.000000
0.000005 0.000485 0.000000
0.000007 0.000490 0.000000
0.000004 0.000496 0.000000
0.000006 0.000499 0.000000
0.000187 0.000632 0.000000
0.000194 0.000643 0.000000
0.000194 0.000673 0.000000
0.000195 0.000679 0.000000
0.000196 0.000684 0.000000
0.000197 0.000688 0.000000
0.000199 0.000691 0.000000
0.000201 0.000695 0.000000
0.000205 0.000701 0.000000
0.000207 0.000705 0.000000
0.000211 0.000712 0.000000
0.000214 0.000717 0.000000
0.000219 0.000722 0.000000
0.000221 0.000729 0.000000
0.000223 0.000733 0.000000
0.000226 0.000737 0.000000
0.000228 0.000746 0.000000
0.000230 0.000750 0.000000
0.000228 0.000747 0.000000
0.000233 0.000756 0.000000
0.000010 0.000445 0.000000
0.000011 0.000450 0.000000
0.000010 0.000455 0.000000
0.000011 0.000460 0.000000
0.000010 0.000465 0.000000
0.000011 0.000470 0.000000
0.000010 0.000475 0.000000
0.000011 0.000480 0.000000
0.000010 0.000486 0.000000
0.000012 0.000490 0.000000
0.000009 0.000497 0.000000
0.000011 0.000498 0.000000
0.000191 0.000632 0.000000
0.000196 0.000643 0.000000
0.000195 0.000659 0.000000
0.000195 0.000666 0.000000
0.000195 0.000670 0.000000
0.000196 0.000676 0.000000
0.000201 0.000673 0.000000
0.000203 0.000684 0.000000
0.000204 0.000689 0.000000
0.000206 0.000696 0.000000
0.000210 0.000698 0.000000
0.000211 0.000706 0.000000
0.000216 0.000707 0.000000
0.000220 0.000713 0.000000
0.000218 0.000718 0.000000
0.000222 0.000725 0.000000
0.000229 0.000739 0.000000
0.000230 0.000742 0.000000
0.000233 0.000751 0.000000
0.000239 0.000755 0.000000
0.000015 0.000445 0.000000
0.000016 0.000450 0.000000
0.000014 0.000455 0.000000
0.000017 0.000459 0.000000
0.000015 0.000465 0.000000
0.000017 0.000470 0.000000
0.000014 0.000475 0.000000
0.000017 0.000480 0.000000
0.000015 0.000485 0.000000
0.000017 0.000489 0.000000
0.000015 0.000495 0.000000
0.000017 0.000498 0.000000
0.000026 0.000500 0.000000
0.000196 0.000649 0.000000
0.000197 0.000662 0.000000
0.000200 0.000663 0.000000
0.000203 0.000678 0.000000
0.000198 0.000682 0.000000
0.000209 0.000685 0.000000
0.000207 0.000691 0.000000
0.000214 0.000695 0.000000
0.000212 0.000702 0.000000
0.000221 0.000708 0.000000
0.000215 0.000712 0.000000
0.000224 0.000718 0.000000
0.000226 0.000723 0.000000
0.000228 0.000728 0.000000
0.000228 0.000731 0.000000
0.000232 0.000735 0.000000
0.000236 0.000742 0.000000
0.000236 0.000747 0.000000
0.000242 0.000753 0.000000
0.000020 0.000445 0.000000
0.000021 0.000450 0.000000
0.000020 0.000456 0.000000
0.000022 0.000460 0.000000
0.000019 0.000465 0.000000
0.000022 0.000468 0.000000
0.000020 0.000475 0.000000
0.000022 0.000479 0.000000
0.000020 0.000486 0.000000
0.000022 0.000491 0.000000
0.000021 0.000497 0.000000
0.000022 0.000499 0.000000
0.000039 0.000500 0.000000
0.000203 0.000649 0.000000
0.000201 0.000655 0.000000
0.000204 0.000660 0.000000
0.000200 0.000670 0.000000
0.000207 0.000673 0.000000
0.000207 0.000680 0.000000
0.000211 0.000691 0.000000
0.000214 0.000687 0.000000
0.000217 0.000698 0.000000
0.000224 0.000700 0.000000
0.000227 0.000708 0.000000
0.000224 0.000714 0.000000
0.000229 0.000718 0.000000
0.000232 0.000723 0.000000
0.000237 0.000732 0.000000
0.000236 0.000737 0.000000
0.000241 0.000742 0.000000
0.000241 0.000747 0.000000
0.000245 0.000751 0.000000
0.000025 0.000445 0.000000
0.000026 0.000450 0.000000
0.000025 0.000455 0.000000
0.000026 0.000458 0.000000
0.000025 0.000466 0.000000
0.000026 0.000471 0.000000
0.000024 0.000476 0.000000
0.000027 0.000480 0.000000
0.000024 0.000485 0.000000
0.000026 0.000489 0.000000
0.000027 0.000493 0.000000
0.000028 0.000500 0.000000
0.000185 0.000608 0.000000
0.000198 0.000651 0.000000
0.000196 0.000655 0.000000
0.000204 0.000666 0.000000
0.000209 0.000669 0.000000
0.000209 0.000678 0.000000
0.000220 0.000679 0.000000
0.000213 0.000681 0.000000
0.000218 0.000691 0.000000
0.000220 0.000695 0.000000
0.000219 0.000703 0.000000
0.000224 0.000705 0.000000
0.000228 0.000712 0.000000
0.000234 0.000720 0.000000
0.000234 0.000728 0.000000
0.000239 0.000725 0.000000
0.000240 0.000738 0.000000
0.000243 0.000733 0.000000
0.000246 0.000744 0.000000
0.000249 0.000748 0.000000
0.000030 0.000445 0.000000
0.000031 0.000450 0.000000
0.000030 0.000457 0.000000
0.000033 0.000462 0.000000
0.000029 0.000464 0.000000
0.000031 0.000469 0.000000
0.000031 0.000473 0.000000
0.000031 0.000478 0.000000
0.000031 0.000486 0.000000
0.000032 0.000492 0.000000
0.000034 0.000497 0.000000
0.000031 0.000499 0.000000
0.000049 0.000500 0.000000
0.000201 0.000640 0.000000
0.000209 0.000657 0.000000
0.000208 0.000662 0.000000
0.000211 0.000667 0.000000
0.000213 0.000673 0.000000
0.000216 0.000684 0.000000
0.000221 0.000688 0.000000
0.000225 0.000688 0.000000
0.000227 0.000697 0.000000
0.000229 0.000701 0.000000
0.000232 0.000711 0.000000
0.000237 0.000712 0.000000
0.000235 0.000716 0.000000
0.000239 0.000720 0.000000
0.000240 0.000729 0.000000
0.000248 0.000734 0.000000
0.000246 0.000738 0.000000
0.000250 0.000742 0.000000
0.000253 0.000746 0.000000
0.000035 0.000445 0.000000
0.000035 0.000450 0.000000
0.000038 0.000455 0.000000
0.000034 0.000456 0.000000
0.000035 0.000465 0.000000
0.000037 0.000472 0.000000
0.000033 0.000479 0.000000
0.000040 0.000479 0.000000
0.000035 0.000484 0.000000
0.000035 0.000488 0.000000
0.000038 0.000491 0.000000
0.000036 0.000498 0.000000
0.000185 0.000577 0.000000
0.000185 0.000607 0.000000
0.000208 0.000649 0.000000
0.000213 0.000660 0.000000
0.000217 0.000671 0.000000
0.000220 0.000668 0.000000
0.000216 0.000676 0.000000
0.000223 0.000681 0.000000
0.000225 0.000692 0.000000
0.000230 0.000691 0.000000
0.000232 0.000704 0.000000
0.000236 0.000702 0.000000
0.000235 0.000708 0.000000
0.000245 0.000719 0.000000
0.000243 0.000723 0.000000
0.000248 0.000726 0.000000
0.000247 0.000730 0.000000
0.000252 0.000734 0.000000
0.000254 0.000739 0.000000
0.000257 0.000743 0.000000
0.000040 0.000445 0.000000
0.000041 0.000450 0.000000
0.000038 0.000460 0.000000
0.000042 0.000457 0.000000
0.000041 0.000465 0.000000
0.000040 0.000469 0.000000
0.000044 0.000476 0.000000
0.000038 0.000475 0.000000
0.000041 0.000487 0.000000
0.000043 0.000492 0.000000
0.000042 0.000497 0.000000
0.000045 0.000498 0.000000
0.000185 0.000524 0.000000
0.000196 0.000638 0.000000
0.000206 0.000645 0.000000
0.000219 0.000654 0.000000
0.000216 0.000665 0.000000
0.000221 0.000674 0.000000
0.000226 0.000676 0.000000
0.000226 0.000682 0.000000
0.000230 0.000686 0.000000
0.000232 0.000695 0.000000
0.000235 0.000695 0.000000
0.000240 0.000704 0.000000
0.000242 0.000711 0.000000
0.000246 0.000712 0.000000
0.000242 0.000715 0.000000
0.000249 0.000722 0.000000
0.000253 0.000727 0.000000
0.000256 0.000732 0.000000
0.000258 0.000737 0.000000
0.000261 0.000741 0.000000
0.000045 0.000445 0.000000
0.000046 0.000450 0.000000
0.000045 0.000455 0.000000
0.000045 0.000461 0.000000
0.000045 0.000465 0.000000
0.000046 0.000469 0.000000
0.000046 0.000478 0.000000
0.000041 0.000483 0.000000
0.000051 0.000485 0.000000
0.000046 0.000484 0.000000
0.000048 0.000493 0.000000
0.000051 0.000498 0.000000
0.000185 0.000531 0.000000
0.000187 0.000628 0.000000
0.000205 0.000654 0.000000
0.000218 0.000660 0.000000
0.000221 0.000662 0.000000
0.000225 0.000671 0.000000
0.000231 0.000679 0.000000
0.000233 0.000683 0.000000
0.000236 0.000690 0.000000
0.000240 0.000694 0.000000
0.000239 0.000699 0.000000
0.000244 0.000706 0.000000
0.000245 0.000701 0.000000
0.000250 0.000714 0.000000
0.000253 0.000718 0.000000
0.000254 0.000722 0.000000
0.000258 0.000726 0.000000
0.000260 0.000730 0.000000
0.000263 0.000734 0.000000
0.000266 0.000738 0.000000
0.000050 0.000445 0.000000
0.000051 0.000450 0.000000
0.000050 0.000456 0.000000
0.000051 0.000459 0.000000
0.000050 0.000465 0.000000
0.000052 0.000471 0.000000
0.000049 0.000473 0.000000
0.000051 0.000478 0.000000
0.000048 0.000488 0.000000
0.000053 0.000491 0.000000
0.000058 0.000493 0.000000
0.000054 0.000498 0.000000
0.000185 0.000560 0.000000
0.000192 0.000625 0.000000
0.000198 0.000634 0.000000
0.000215 0.000655 0.000000
0.000225 0.000662 0.000000
0.000226 0.000667 0.000000
0.000233 0.000672 0.000000
0.000230 0.000673 0.000000
0.000241 0.000683 0.000000
0.000236 0.000684 0.000000
0.000244 0.000693 0.000000
0.000246 0.000698 0.000000
0.000249 0.000705 0.000000
0.000251 0.000709 0.000000
0.000256 0.000713 0.000000
0.000257 0.000717 0.000000
0.000260 0.000722 0.000000
0.000264 0.000727 0.000000
0.000267 0.000732 0.000000
0.000270 0.000736 0.000000
0.000055 0.000445 0.000000
0.000057 0.000450 0.000000
0.000055 0.000455 0.000000
0.000056 0.000461 0.000000
0.000054 0.000464 0.000000
0.000057 0.000469 0.000000
0.000057 0.000477 0.000000
0.000058 0.000482 0.000000
0.000053 0.000483 0.000000
0.000057 0.000487 0.000000
0.000056 0.000497 0.000000
0.000060 0.000497 0.000000
0.000185 0.000568 0.000000
0.000186 0.000626 0.000000
0.000194 0.000633 0.000000
[...]
POINT_DATA 8856
SCALARS density float 1
LOOKUP_TABLE default
4429.788479
4431.646779
4426.013345
4422.687512
4422.826825
4428.599200
4439.744211
4434.214904
4443.028413
4425.696306
4433.946524
4397.375990
4547.957716
4477.048843
4435.428933
4419.805916
4425.931152
4428.153899
4428.634210
4441.917721
4431.765417
4426.774981
4416.727979
4441.448477
4429.391857
4421.061439
4441.316181
4431.834989
4427.567655
4434.759621
4446.217016
4445.730470
4421.900766
4427.091461
4423.450117
4436.332530
4438.947307
4416.496697
4420.830618
4422.114182
4404.579978
4418.397203
4444.469198
4400.001494
4417.811733
4436.290979
4391.516417
4419.327437
4419.679210
4398.778960
4414.612167
4428.336086
4424.269291
4409.686280
4415.832748
4405.460884
4440.334935
4397.943192
4413.380617
4406.922260
4424.695064
4403.345142
4425.518595
4442.104497
4422.087224
4425.602297
4447.012770
4403.814117
4437.986837
4420.477405
4453.932804
4388.702508
4482.712126
4363.533418
4476.078181
4407.960044
4416.924206
4450.665075
4430.834439
4396.318200
4401.697700
4392.184770
4468.604847
4387.122201
4465.934267
4400.779683
4413.919577
4425.322890
4398.813218
4413.446211
4436.377094
4403.259597
4438.054102
4443.787289
4429.997356
4405.243216
4432.141339
4442.382860
4434.360532
4443.522129
4441.966412
4406.214624
4459.426347
4377.177335
4477.240625
4372.971703
4523.792958
4395.215400
4438.555465
4393.718593
4454.491434
4427.698000
4398.126442
4461.128661
4396.487837
4448.074721
4431.668520
4440.474443
4418.566860
4453.737918
4404.343248
4461.701342
4453.183325
4464.840963
4439.412053
4380.027448
4492.675156
4442.714630
4433.018664
4428.893860
4442.274007
4416.073328
4443.147722
4438.594728
4442.184207
4438.382958
4465.662084
4378.811338
4472.453321
4440.471769
4422.762752
4396.828692
4453.888296
4392.047991
4518.762907
4370.366637
4441.895898
4441.935853
4440.385878
4427.098887
4433.927953
4417.024743
4442.337773
4411.139852
4419.663174
4436.911017
4418.658700
4453.770162
4345.935082
4449.572334
4430.388290
4433.874555
4434.899669
4429.149145
4450.668133
4407.070837
4455.801408
4384.173643
4424.165031
4463.279298
4407.169549
4427.642683
4430.815176
4473.145958
4361.952291
4341.602375
4469.386564
4460.846057
4443.254156
4438.819079
4429.584965
4442.740150
4427.760516
4455.940031
4453.489830
4461.045252
4359.822634
4467.650392
4461.006374
4395.280149
4436.736500
4426.526434
4440.189727
4425.243217
4413.943319
4431.165443
4421.232392
4436.221376
4423.343577
4450.656536
4442.274424
4398.781706
4465.008410
4421.960887
4425.570433
4427.647368
4432.307038
4482.051424
4445.219931
4424.724719
4431.338904
4425.400475
4425.878005
4412.467123
4429.614821
4417.683940
4425.235641
4419.710675
4402.390074
4450.526186
4470.304058
4401.783153
4408.024818
4434.941012
4439.257935
4429.281518
4416.141163
4426.233836
4433.580313
4433.803220
4433.406177
4415.368378
4414.179193
4435.049927
4412.898112
4447.990401
4533.370294
4441.492766
4457.058267
4387.698312
4464.020393
4423.282818
4385.188979
4447.807396
4437.500745
4435.465710
4406.438141
4455.570644
4426.022474
4413.136425
4421.421309
4429.608687
4425.197004
4445.599058
4416.341642
4428.572014
4424.328950
4439.800438
4434.779850
4413.115703
4432.586515
4417.337199
4441.176200
4412.884844
4455.713786
4426.558049
4434.933709
4428.913618
4629.923608
4382.550557
4413.446281
4431.403788
4381.347822
4444.870995
4433.242668
4431.990307
4440.259355
4440.188293
4454.462441
4448.003884
4421.086153
4420.169593
4454.782302
4451.930788
4399.687655
4423.722083
4417.222438
4434.046200
4433.234642
4416.645150
4423.673564
4418.316029
4446.703573
4422.313052
4441.882244
4439.020665
4480.609986
4387.239665
4467.808665
4449.394642
4488.822493
4422.931034
4417.408391
4471.390182
4454.696246
4427.008039
4407.363475
4466.059423
4411.443561
4420.110713
4390.498281
4411.922695
4445.754465
4404.580671
4439.286348
4415.294882
4441.878494
4450.098705
4425.366947
4418.618911
4432.027950
4420.651304
4440.991712
4433.606563
4395.480092
4424.261928
4452.260645
4364.471482
4389.222589
4388.333985
4558.697200
4408.974713
4598.119576
4447.350185
4453.415285
4450.444935
4450.150048
4425.817424
4448.863940
4458.745925
4444.169565
4442.349278
4454.117827
4433.549433
4450.556758
4463.235240
4439.451608
4448.614913
4422.024604
4421.607724
4424.004108
4427.753839
4431.969931
4420.571588
4415.561524
4418.537569
4444.772527
4414.349689
4442.300243
4414.188832
4480.199164
4376.592897
4411.119066
4383.790415
4606.063233
4425.595294
4443.194701
4427.760314
4435.818504
4427.868103
4451.758039
4437.960228
4447.758206
4446.752276
4464.030381
4393.756966
4449.703112
4410.513756
4426.016896
4434.267755
4445.917258
4422.477426
4428.348832
4420.952756
4429.342175
4398.777070
4435.860772
4398.857244
4430.318749
4391.210891
4467.917602
4403.669275
4462.327330
4404.564062
4453.542294
4442.054147
4409.014103
4391.484769
4453.123106
4394.772800
4372.967833
4440.770823
4415.991711
4452.998926
4422.646813
4455.533645
4394.723745
4453.919526
4415.518654
4447.957665
4442.137535
4446.318529
4413.927023
4426.869488
4423.824287
4421.515152
4436.746152
4425.893240
4437.557809
4417.694253
4443.909405
4431.089390
4456.092984
4436.711980
4456.130570
4370.053405
4435.985894
4436.722356
4573.535918
4439.507860
4413.595163
4426.204972
4465.587815
4436.247922
4440.753271
4434.150770
4412.117297
4452.729312
4443.297746
4447.364328
4403.381479
4410.227660
4415.630446
4439.540691
4444.630562
4421.796888
4427.789327
4422.750128
4428.593178
4427.979364
4417.703396
4436.217734
4420.065831
4399.830092
4444.349232
4383.156429
4435.197072
4453.564282
4440.888629
4444.803057
4521.639888
4405.256547
4441.664435
4444.584097
4454.229300
4404.791637
4451.554613
4454.354063
4458.183556
4406.011144
4420.516165
4432.747949
4403.864837
4459.437033
4411.102466
4427.415601
4435.388354
4411.340935
4427.475734
4421.370490
4441.151466
4424.397478
4425.824681
4411.094261
4425.700990
4437.883510
4424.719949
4458.202635
4442.887514
4389.766330
4431.361712
4447.638236
4424.984927
4414.065211
4430.558153
4385.123307
4427.869838
4468.047768
4447.699970
4442.694629
4407.133081
4464.784768
4428.502038
4449.308787
4453.889283
4462.393654
4439.094076
4441.732943
4414.857711
4443.864563
4413.639927
4420.968356
4420.415953
4419.026550
4430.269730
4431.693232
4439.111340
4405.209842
4417.347871
4403.140728
4392.904323
4506.819560
4357.834116
4426.103940
4426.137231
4407.799686
4490.379786
4417.802701
4436.589953
4425.668605
4416.313379
4404.296945
4448.834698
4440.556180
4461.561567
4429.282350
4451.456596
4461.945774
4423.470118
4448.971392
4414.833008
4441.472057
4412.690545
4425.426537
4446.425006
4421.013198
4426.808579
4441.975424
4423.402543
4430.170973
4437.575018
4446.018534
4450.224655
4428.588826
4449.100316
4482.754981
4557.490911
4586.524326
4474.533569
4418.133485
4431.033567
4418.712335
4447.622511
4451.770034
4434.635310
4434.476163
4438.939067
4425.271132
4406.755598
4457.975325
4436.223401
4409.556859
4426.942695
4433.001557
4420.437835
4426.982951
4420.334256
4421.012320
4433.871107
4419.555586
4402.533526
4417.744132
4440.424568
4472.654478
4446.323171
4428.049488
4399.773880
4415.697955
4406.902298
4416.612772
4378.765850
4413.266582
4426.400190
4414.349392
4465.098479
4444.776076
4433.700364
4426.804178
4443.686510
4437.121196
4467.982673
4424.165142
4465.381769
4435.815704
4439.953461
4421.715274
4418.421644
4420.222754
4443.708821
4431.218309
4437.224675
4427.082800
4442.051095
4404.700858
4392.423998
4432.865221
4410.090185
4433.273510
4441.088989
4434.968205
4394.954521
4395.037779
4476.083571
4492.731476
4461.801739
4435.489254
4417.801489
4371.093088
4485.614608
4413.376931
4432.700690
4395.849221
4457.134316
4445.410284
4438.426039
4409.156952
4423.222201
4429.323436
4423.000083
4422.421133
4411.041113
4423.176503
4428.922633
4417.202635
4438.649140
4417.128924
4427.437685
4362.521241
4447.911675
4483.626245
4381.106116
4579.739988
4401.897439
4495.484947
4421.509413
4505.732682
4449.306634
4450.716811
4394.824130
4433.683424
4442.867919
4474.465990
4424.084040
4446.138688
4411.504632
4447.810190
4433.206463
4466.897229
4448.282580
4421.712202
4430.795040
4414.614198
4452.124018
4436.055852
4415.640393
4421.317706
4426.257275
4407.850579
4462.500396
4416.914528
4456.343057
4388.392848
4418.579226
4429.961031
4469.650569
4406.140229
4487.893748
4458.807411
4422.064943
4457.489327
4444.182115
4445.326862
4397.930584
4365.656481
4436.432661
4453.481508
4440.256293
4394.905810
4455.516092
4420.211023
4423.865690
4410.798617
4432.711074
4423.742246
4422.170868
4435.717962
4423.565937
4427.009923
4420.431819
4388.113146
4461.143928
4401.881177
4441.547811
4359.199312
4356.244620
4505.864106
4418.934038
4447.065171
4459.250863
4405.765914
4469.945117
4410.427696
4408.974962
4430.138138
4427.412471
4415.651635
4419.776738
4453.987719
4465.842843
4419.490316
4448.032953
4439.675177
4463.457335
4428.588539
4413.646623
4425.723745
4440.871731
4441.731446
4419.885714
4423.521542
4438.166032
4454.225514
4436.042014
4418.004231
4463.943658
4458.773574
4454.300504
4427.001485
4461.872864
4462.047930
4483.655162
4453.528420
4438.877265
4492.856396
4421.663930
4391.589860
4453.552629
4425.497124
4399.668332
4377.056688
4456.788445
4455.480931
4417.801921
4440.279330
4421.818300
4421.739251
4433.689405
4422.887390
4413.880621
4427.742709
4427.161239
4427.785607
4428.477381
4428.581676
4429.088189
4429.191894
4429.654884
4429.711363
4430.104163
4430.046243
4430.207681
4429.941611
4429.847966
4418.021805
4426.256365
4426.097372
4427.129306
4427.767133
4428.091978
4428.794648
4428.844191
4429.385409
4429.346819
4429.923293
4429.890307
4430.026291
4430.145436
4431.749464
4421.279490
4426.211297
4425.778429
4426.722196
4427.693118
4427.663258
4428.489860
4428.409429
4429.222295
4429.086352
4429.658837
4429.357211
4429.690572
4430.186551
4429.588890
4422.879050
4426.709792
4426.290914
4427.065979
4427.580093
4427.883017
4428.488413
4428.585053
4428.948896
4428.999211
4429.285515
4429.388371
4429.739319
4429.526907
4430.580560
4424.721323
4427.011123
4426.736887
4427.107595
4427.620226
4427.780040
4428.225818
4428.343141
4428.818580
4428.856948
4429.271857
4428.801818
4429.612999
4428.565839
4429.799136
4425.342481
4427.402029
4427.151628
4427.283810
4427.965621
4427.768275
4428.609917
4428.252144
4429.018210
4428.484140
4429.237249
4428.830061
4429.359147
4427.901958
4429.671963
4426.011414
4427.633394
4427.397755
4427.479056
4427.891050
4427.811334
4428.337701
4428.204655
4428.732207
4428.685418
4429.086978
4428.616832
4428.860597
4427.830503
4428.679259
4426.505624
4427.883282
4427.686654
4427.670848
4428.102658
4428.068202
4428.423403
4428.471021
4428.726082
4428.643439
4428.905290
4428.883447
4429.048929
4428.034233
4427.462846
4426.723872
4428.065029
4427.760940
4427.814841
4428.086483
4427.903045
4428.439681
4428.153684
4428.721832
4428.632498
4429.136381
4428.889073
4429.238480
4429.072127
4429.275399
4427.186639
4428.262732
4427.908128
4428.035036
4428.146442
4428.309772
4428.335288
4428.577643
4428.615724
4428.725189
4428.904957
4429.237430
4429.959716
4429.153656
4430.632961
4427.125991
4428.380297
4427.917406
4428.119746
4428.047270
4428.161743
4428.240087
4428.314714
4428.437615
4428.716173
4429.015288
4429.038169
4429.871986
4430.018807
4430.853311
4427.440926
4428.478272
4428.034657
4428.161068
4428.321606
4428.176845
4428.488026
4428.247939
4428.732603
4428.360098
4428.848556
4428.994941
4429.640488
4430.274840
4430.148685
4427.657474
4428.312521
4428.344771
4428.026054
4428.212699
4428.121045
4428.189613
4428.239128
4428.214469
4428.472723
4428.590415
4428.597243
4429.176700
4429.357872
4431.002508
4437.419414
4442.120432
4410.721088
4433.735929
4448.693871
4449.379052
4438.048114
4498.018593
4433.494061
4457.399227
4436.717015
4478.489653
4434.877138
4429.961945
4426.161631
4410.600740
4427.733068
4428.465608
4428.271484
4428.114155
4428.431565
4428.075786
4428.398939
4428.122399
4428.383043
4428.074241
4428.190687
4428.304151
4428.643256
4428.380590
4430.164724
4420.847592
4455.327987
4446.975092
4436.402681
4458.000658
4434.461790
4498.843616
4385.742935
4432.693228
4411.495185
4395.179543
4435.194832
4426.513595
4458.777188
4410.444884
4410.227425
4427.540007
4428.400817
4428.364834
4427.996050
4428.344339
4427.831278
4428.398500
4427.598157
4428.310826
4427.502838
4428.447549
4427.266162
4428.126356
4427.468022
4427.629021
4427.929746
4420.441345
4409.795051
4440.348956
4384.000801
4450.781470
4470.586700
4422.984081
4452.626895
4454.481895
4409.067072
4383.416508
4441.598518
4470.796787
4386.745542
4436.315165
4427.675424
4428.438486
4428.448010
4427.955121
4428.529027
4427.956794
4428.251844
4427.906675
4428.108223
4427.557659
4427.791830
4427.212644
4427.530978
4425.735895
4428.591596
4439.324197
4439.215923
4420.853200
4371.869804
4456.148109
4460.052051
4474.456658
4461.103675
4457.593065
4417.508098
4450.358281
4450.977972
4386.847568
4425.828332
4431.716841
4405.798487
4427.508687
4428.577518
4428.226963
4428.210195
4428.181954
4427.895485
4428.120294
4427.649469
4427.655563
4427.607192
4427.178118
4426.582556
4426.724108
4424.734881
4424.296505
4428.423682
4432.389368
4450.153471
4413.704935
4478.902062
4421.601616
4487.615980
4497.902161
4466.353992
4454.710386
4444.191272
4458.468794
4446.477248
4360.925471
4427.591949
4410.181722
4427.512784
4428.716106
4428.181807
4428.309259
4428.116168
4428.271306
4427.845321
4427.950349
4427.819633
4427.106129
4427.302061
4426.169283
4426.289468
4424.017303
4420.483888
4417.199222
4410.446082
4448.091123
4428.423391
4460.747015
4452.435889
4578.368715
4469.857241
4425.269800
4438.943525
4455.360807
4441.827452
4388.039616
4435.036856
4422.820387
4424.098946
4427.718988
4428.654441
4428.260717
4428.316068
4428.095894
4428.028550
4427.880394
4427.894534
4427.245904
4427.866222
4426.295414
4427.089890
4424.543094
4425.293167
4422.524110
4447.528703
4398.681440
4437.778753
4415.230217
4460.667510
4476.522944
4488.731912
4493.878530
4493.830883
4445.127229
4474.822144
4479.059101
4437.272135
4466.218619
4473.505415
4407.256856
4427.535893
4428.786408
4428.197498
4428.393693
4428.095965
4428.301353
4427.897527
4427.970138
4427.707012
4427.304502
4427.336307
4426.692942
4426.934848
4426.217160
4424.104751
4432.215156
4428.376862
4423.399127
4447.302630
4479.957475
4471.824711
4486.493729
4491.621561
4452.272786
4451.726392
4415.616862
4460.382524
4458.543727
4440.979453
4394.277686
4410.822109
4427.523280
4428.625520
4428.395799
4428.150425
4428.395877
4427.948650
4428.201266
4427.763820
4427.923924
4427.465236
4427.562618
4427.380641
4427.589341
4427.502361
4428.880944
4429.937914
4417.900270
4440.916911
4428.922766
4451.839039
4474.680928
4468.912040
4471.633844
4476.738548
4459.867462
4439.384508
4415.715622
4424.788386
4441.383744
4385.017076
4415.398427
4427.576777
4428.630832
4428.521293
4428.223664
4428.520530
4428.097873
4428.369199
4427.941840
4427.893603
4427.776033
4427.626742
4427.529684
4428.120663
4428.556877
4428.665199
4449.182131
4423.862710
4448.571812
4424.964587
4448.489159
4459.617870
4438.868731
4451.179517
4462.629762
4438.912959
4413.665750
4424.774589
4450.308968
4456.084024
4369.571038
4436.710894
4427.590577
4428.803007
4428.375136
4428.480211
4428.274837
4428.400387
4428.064248
4428.104958
4428.034969
4427.599092
4427.902001
4427.905362
4427.698164
4428.787427
4427.551319
4424.790156
4425.068978
4438.216410
4443.773244
4443.324254
4446.375069
4437.226368
4467.074822
4462.503402
4449.016199
4410.175159
4461.734536
4464.448136
4440.527470
4413.511706
4419.959516
4427.584918
4428.833259
4428.445224
4428.454852
4428.543836
4428.257291
4428.424768
4428.167568
4427.850358
4428.205986
4427.657961
4427.784295
4427.594602
4427.501519
4427.453690
4428.151815
4434.063248
4394.976744
4427.411257
4413.164788
4432.198236
4443.581992
4457.086985
4462.230284
4443.120870
4494.078147
4405.945483
4462.058053
4418.842054
4301.340929
4429.052993
4427.701377
4428.785893
4428.693245
4428.453546
4428.539588
4428.426640
4428.266563
4428.174411
4428.312887
4427.771379
4428.080076
4427.846867
4427.611843
4427.435762
4426.841913
4420.752726
4432.268784
4427.037638
4439.712887
4442.459612
4428.245640
4414.864227
4433.090984
4431.943240
4440.197718
4448.448312
4411.214690
4444.740553
4399.245047
4529.594462
4441.874790
4427.679252
4429.000632
4428.524968
4428.734205
4428.585861
4428.489123
4428.634395
4428.332794
4428.279136
4428.167835
4428.000093
4427.443433
4427.910210
4427.316883
4427.572068
4434.616059
4435.759847
4424.986532
4423.666670
4440.712742
4450.885136
4442.911959
4424.877656
4443.450223
4421.992681
4452.366152
4406.077713
4433.972605
4469.952110
4409.795683
4395.031030
4427.818996
4429.042764
4428.701384
4428.659941
4428.739690
4428.706221
4428.442327
4428.637025
4428.193132
4428.304878
4427.647570
4428.221032
4427.070445
4427.807492
4428.392999
4436.808200
4430.201681
4411.403919
4417.878035
4435.502041
4430.679481
4443.468716
4418.581882
4405.507476
4451.928116
4452.501457
4450.021174
4419.043340
4424.264456
4430.590042
4420.432122
4427.855454
4429.089303
4428.783549
4429.086543
4428.652710
4428.976033
4428.621691
4428.679129
4428.429798
4428.264446
4428.154690
4427.671158
4427.654230
4428.228975
4427.003247
4444.377064
4405.520113
4433.160978
4425.720083
4450.707261
4425.272453
4413.816069
4431.175079
4452.793896
4437.392154
4430.890669
4428.921675
4445.724731
4409.103017
4428.300224
4414.044034
4428.129864
4429.201766
4428.969995
4428.820105
4429.189455
4428.733318
4428.994599
4428.721301
4428.549392
4428.674891
4428.082985
4428.423379
4427.937063
4427.369996
4431.460005
4432.475194
4432.539789
4423.729834
4438.677521
4437.244757
4459.357203
4438.238230
4421.253323
4425.386747
4452.238631
4423.743346
4449.728436
4457.998034
4450.102509
4418.428974
4482.384592
4428.240848
4429.055224
4429.374732
4428.936894
4429.369549
4428.931535
4429.216061
4428.753999
4429.069393
4428.279589
4428.582553
4427.960778
4427.821149
4427.310651
4429.142262
4429.708877
4427.801655
4432.551631
4416.450197
4405.756468
4434.632124
4440.249281
4402.152407
4425.524930
4424.766528
4447.770705
4467.011719
4469.581893
4437.791504
4417.641441
4441.830359
4428.548578
4429.401416
4429.258515
4429.340617
4429.270190
4429.209569
4429.259821
4428.918383
4429.037042
4428.584344
4429.040268
4427.803100
4428.851470
4427.359348
4426.347730
4404.188860
4437.765351
4394.797232
4439.869080
4434.382269
4430.127562
4423.119999
4412.642622
4423.573396
4457.152172
4445.139509
4421.914716
4427.058825
4465.595976
4473.968748
4452.713387
4428.674419
4429.609307
4429.365762
4429.436552
4429.571740
4429.383680
4429.385658
4429.397902
4429.133422
4429.260435
4428.376972
4429.246244
4427.509425
4427.233192
4429.688460
4431.580594
4442.275662
4436.278174
4434.078724
4440.553227
4419.230365
4427.245075
4443.345736
4439.715355
4412.713289
4441.708934
4454.300236
4442.181876
4447.720342
4454.577310
4451.476088
4429.053846
4429.578079
4429.744735
4429.559890
4429.675518
4429.638987
4429.634023
4429.609368
4429.437267
4429.355832
4429.469356
4428.430526
4429.064260
4428.777374
4427.902273
4431.642779
4427.967754
4435.206863
4436.477250
4419.448568
4399.195988
4436.293853
4400.535734
4419.825198
4445.790476
4461.582084
4468.071858
4479.206907
4461.255708
4464.129601
4452.622117
4429.466771
4429.883262
4429.765302
4429.956588
4429.880648
4429.926166
4429.897596
4429.785947
4429.828513
4429.562652
4429.224543
4429.598356
4428.773440
4428.326350
4429.753800
4439.944698
4419.658705
4439.085176
4409.504229
4442.739359
4426.283526
4456.518242
4400.569092
4392.562054
4441.399696
4449.554172
4442.964842
4443.611063
4461.636649
4454.438744
4451.699258
4429.768193
4430.135839
4429.923300
4430.150251
4429.972318
4430.231783
4429.926110
4430.342718
4429.685058
4430.437920
4429.659089
4429.906508
4429.244860
4429.379045
4430.312844
4430.328535
4409.966889
4430.172070
4446.167815
4446.123429
4439.377465
4422.011249
4446.420595
4449.629111
4425.945602
4427.926817
4426.344155
4437.637345
4440.891930
4432.433435
4443.885607