# vtk DataFile Version 2.0
mfree iwf
ASCII

DATASET UNSTRUCTURED_GRID
POINTS 11907 float
-0.000000 0.000445 0.000000
-0.000000 0.000450 0.000000
-0.000000 0.000455 0.000000
-0.000000 0.000460 0.000000
-0.000000 0.000465 0.000000
-0.000000 0.000470 0.000000
-0.000000 0.000475 0.000000
-0.000000 0.000480 0.000000
-0.000000 0.000485 0.000000
0.000000 0.000490 0.000000
-0.000000 0.000496 0.000000
0.000002 0.000500 0.000000
0.001230 0.001044 0.000000
0.001239 0.001042 0.000000
0.001282 0.001022 0.000000
0.001286 0.001019 0.000000
0.001286 0.001019 0.000000
0.001292 0.001016 0.000000
0.001298 0.001011 0.000000
0.001294 0.001014 0.000000
0.001307 0.001007 0.000000
0.001330 0.000992 0.000000
0.001334 0.000987 0.000000
0.001337 0.000984 0.000000
0.001340 0.000980 0.000000
0.001343 0.000976 0.000000
0.001346 0.000972 0.000000
0.001349 0.000968 0.000000
0.001351 0.000964 0.000000
0.001355 0.000959 0.000000
0.001359 0.000954 0.000000
0.001377 0.000941 0.000000
0.000005 0.000445 0.000000
0.000005 0.000450 0.000000
0.000005 0.000455 0.000000
0.000005 0.000460 0.000000
0.000005 0.000465 0.000000
0.000005 0.000470 0.000000
0.000005 0.000475 0.000000
0.000005 0.000480 0.000000
0.000005 0.000485 0.000000
0.000006 0.000489 0.000000
0.000003 0.000496 0.000000
0.000006 0.000499 0.000000
0.001277 0.001023 0.000000
0.001280 0.001014 0.000000
0.001312 0.001001 0.000000
0.001318 0.000998 0.000000
0.001322 0.000995 0.000000
0.001325 0.000993 0.000000
0.001326 0.000991 0.000000
0.001329 0.000986 0.000000
0.001331 0.000983 0.000000
0.001335 0.000978 0.000000
0.001340 0.000972 0.000000
0.001343 0.000968 0.000000
0.001346 0.000962 0.000000
0.001353 0.000955 0.000000
0.001355 0.000951 0.000000
0.001359 0.000947 0.000000
0.001369 0.000942 0.000000
0.001370 0.000941 0.000000
0.001366 0.000945 0.000000
0.001374 0.000939 0.000000
0.000010 0.000445 0.000000
0.000010 0.000450 0.000000
0.000009 0.000455 0.000000
0.000010 0.000460 0.000000
0.000010 0.000465 0.000000
0.000010 0.000469 0.000000
0.000010 0.000475 0.000000
0.000011 0.000479 0.000000
0.000009 0.000486 0.000000
0.000012 0.000489 0.000000
0.000008 0.000497 0.000000
0.000011 0.000498 0.000000
0.001275 0.001020 0.000000
0.001283 0.001012 0.000000
0.001298 0.001007 0.000000
0.001305 0.001004 0.000000
0.001309 0.001001 0.000000
0.001314 0.000999 0.000000
0.001304 0.000998 0.000000
0.001311 0.000993 0.000000
0.001317 0.000990 0.000000
0.001322 0.000986 0.000000
0.001329 0.000979 0.000000
0.001334 0.000975 0.000000
0.001333 0.000968 0.000000
0.001337 0.000965 0.000000
0.001342 0.000964 0.000000
0.001350 0.000957 0.000000
0.001361 0.000945 0.000000
0.001363 0.000943 0.000000
0.001367 0.000937 0.000000
0.001367 0.000931 0.000000
0.000014 0.000445 0.000000
0.000016 0.000450 0.000000
0.000014 0.000456 0.000000
0.000017 0.000460 0.000000
0.000014 0.000469 0.000000
0.000015 0.000465 0.000000
0.000014 0.000476 0.000000
0.000017 0.000480 0.000000
0.000014 0.000484 0.000000
0.000016 0.000489 0.000000
0.000014 0.000495 0.000000
0.000016 0.000497 0.000000
0.000025 0.000500 0.000000
0.001286 0.001012 0.000000
0.001300 0.001005 0.000000
0.001294 0.001002 0.000000
0.001307 0.000995 0.000000
0.001317 0.000996 0.000000
0.001317 0.000987 0.000000
0.001324 0.000982 0.000000
0.001320 0.000980 0.000000
0.001326 0.000977 0.000000
0.001333 0.000963 0.000000
0.001337 0.000971 0.000000
0.001341 0.000957 0.000000
0.001346 0.000957 0.000000
0.001345 0.000952 0.000000
0.001349 0.000951 0.000000
0.001353 0.000945 0.000000
0.001357 0.000942 0.000000
0.001359 0.000938 0.000000
0.001366 0.000929 0.000000
0.000019 0.000445 0.000000
0.000021 0.000450 0.000000
0.000018 0.000455 0.000000
0.000022 0.000459 0.000000
0.000019 0.000469 0.000000
0.000024 0.000467 0.000000
0.000018 0.000474 0.000000
0.000022 0.000479 0.000000
0.000019 0.000486 0.000000
0.000021 0.000491 0.000000
0.000020 0.000497 0.000000
0.000022 0.000499 0.000000
0.000039 0.000500 0.000000
0.001281 0.001000 0.000000
0.001289 0.001005 0.000000
0.001296 0.000998 0.000000
0.001301 0.001001 0.000000
0.001310 0.000989 0.000000
0.001308 0.000984 0.000000
0.001320 0.000976 0.000000
0.001311 0.000982 0.000000
0.001323 0.000971 0.000000
0.001321 0.000963 0.000000
0.001325 0.000958 0.000000
0.001332 0.000956 0.000000
0.001340 0.000951 0.000000
0.001344 0.000942 0.000000
0.001350 0.000941 0.000000
0.001352 0.000939 0.000000
0.001359 0.000933 0.000000
0.001363 0.000933 0.000000
0.001362 0.000926 0.000000
0.000024 0.000445 0.000000
0.000026 0.000450 0.000000
0.000024 0.000455 0.000000
0.000026 0.000461 0.000000
0.000021 0.000464 0.000000
0.000025 0.000472 0.000000
0.000023 0.000476 0.000000
0.000027 0.000481 0.000000
0.000023 0.000485 0.000000
0.000026 0.000488 0.000000
0.000026 0.000492 0.000000
0.000027 0.000500 0.000000
0.001258 0.001034 0.000000
0.001289 0.001008 0.000000
0.001293 0.001007 0.000000
0.001305 0.000990 0.000000
0.001301 0.000993 0.000000
0.001316 0.000983 0.000000
0.001314 0.000976 0.000000
0.001304 0.000986 0.000000
0.001310 0.000974 0.000000
0.001329 0.000973 0.000000
0.001326 0.000966 0.000000
0.001327 0.000969 0.000000
0.001337 0.000960 0.000000
0.001337 0.000955 0.000000
0.001348 0.000946 0.000000
0.001343 0.000947 0.000000
0.001355 0.000934 0.000000
0.001347 0.000935 0.000000
0.001356 0.000929 0.000000
0.001357 0.000923 0.000000
0.000030 0.000445 0.000000
0.000031 0.000450 0.000000
0.000029 0.000455 0.000000
0.000031 0.000459 0.000000
0.000031 0.000464 0.000000
0.000028 0.000468 0.000000
0.000031 0.000472 0.000000
0.000030 0.000477 0.000000
0.000030 0.000486 0.000000
0.000031 0.000492 0.000000
0.000033 0.000497 0.000000
0.000030 0.000499 0.000000
0.000048 0.000500 0.000000
0.001278 0.001008 0.000000
0.001289 0.000995 0.000000
0.001296 0.000992 0.000000
0.001294 0.000993 0.000000
0.001300 0.000988 0.000000
0.001305 0.000976 0.000000
0.001317 0.000965 0.000000
0.001317 0.000973 0.000000
0.001320 0.000967 0.000000
0.001328 0.000961 0.000000
0.001329 0.000947 0.000000
0.001333 0.000952 0.000000
0.001335 0.000948 0.000000
0.001338 0.000937 0.000000
0.001339 0.000944 0.000000
0.001344 0.000932 0.000000
0.001350 0.000932 0.000000
0.001353 0.000926 0.000000
0.001354 0.000920 0.000000
0.000035 0.000445 0.000000
0.000035 0.000450 0.000000
0.000034 0.000457 0.000000
0.000038 0.000454 0.000000
0.000035 0.000467 0.000000
0.000036 0.000472 0.000000
0.000032 0.000479 0.000000
0.000041 0.000479 0.000000
0.000034 0.000483 0.000000
0.000035 0.000488 0.000000
0.000037 0.000491 0.000000
0.000036 0.000498 0.000000
0.001217 0.001045 0.000000
0.001254 0.001036 0.000000
0.001285 0.001000 0.000000
0.001289 0.000990 0.000000
0.001302 0.000980 0.000000
0.001291 0.000981 0.000000
0.001309 0.000978 0.000000
0.001307 0.000971 0.000000
0.001314 0.000969 0.000000
0.001305 0.000963 0.000000
0.001312 0.000954 0.000000
0.001325 0.000950 0.000000
0.001328 0.000953 0.000000
0.001330 0.000944 0.000000
0.001342 0.000938 0.000000
0.001332 0.000928 0.000000
0.001344 0.000925 0.000000
0.001347 0.000928 0.000000
0.001350 0.000923 0.000000
0.001350 0.000917 0.000000
0.000040 0.000445 0.000000
0.000041 0.000450 0.000000
0.000036 0.000461 0.000000
0.000040 0.000458 0.000000
0.000041 0.000463 0.000000
0.000039 0.000468 0.000000
0.000041 0.000473 0.000000
0.000037 0.000477 0.000000
0.000041 0.000488 0.000000
0.000042 0.000491 0.000000
0.000041 0.000497 0.000000
0.000044 0.000498 0.000000
0.001064 0.001015 0.000000
0.001276 0.001016 0.000000
0.001277 0.001004 0.000000
0.001284 0.000987 0.000000
0.001298 0.000984 0.000000
0.001299 0.000976 0.000000
0.001297 0.000979 0.000000
0.001310 0.000966 0.000000
0.001315 0.000958 0.000000
0.001321 0.000959 0.000000
0.001313 0.000962 0.000000
0.001314 0.000945 0.000000
0.001324 0.000943 0.000000
0.001329 0.000936 0.000000
0.001335 0.000942 0.000000
0.001333 0.000938 0.000000
0.001340 0.000932 0.000000
0.001340 0.000927 0.000000
0.001346 0.000920 0.000000
0.001346 0.000914 0.000000
0.000044 0.000445 0.000000
0.000046 0.000450 0.000000
0.000044 0.000455 0.000000
0.000046 0.000461 0.000000
0.000044 0.000467 0.000000
0.000046 0.000473 0.000000
0.000046 0.000478 0.000000
0.000039 0.000483 0.000000
0.000052 0.000485 0.000000
0.000045 0.000483 0.000000
0.000048 0.000493 0.000000
0.000050 0.000498 0.000000
0.001071 0.001018 0.000000
0.001273 0.001025 0.000000
0.001290 0.000999 0.000000
0.001293 0.000985 0.000000
0.001288 0.000984 0.000000
0.001301 0.000971 0.000000
0.001298 0.000968 0.000000
0.001305 0.000966 0.000000
0.001305 0.000957 0.000000
0.001317 0.000953 0.000000
0.001321 0.000954 0.000000
0.001327 0.000940 0.000000
0.001319 0.000943 0.000000
0.001324 0.000936 0.000000
0.001334 0.000933 0.000000
0.001336 0.000927 0.000000
0.001336 0.000922 0.000000
0.001340 0.000921 0.000000
0.001342 0.000917 0.000000
0.001342 0.000911 0.000000
0.000049 0.000445 0.000000
0.000053 0.000450 0.000000
0.000049 0.000454 0.000000
0.000052 0.000455 0.000000
0.000048 0.000465 0.000000
0.000050 0.000472 0.000000
0.000052 0.000467 0.000000
0.000051 0.000478 0.000000
0.000047 0.000488 0.000000
0.000052 0.000491 0.000000
0.000057 0.000492 0.000000
0.000053 0.000498 0.000000
0.001160 0.001046 0.000000
0.001264 0.001023 0.000000
0.001273 0.001012 0.000000
0.001284 0.000990 0.000000
0.001290 0.000977 0.000000
0.001295 0.000973 0.000000
0.001291 0.000972 0.000000
0.001296 0.000967 0.000000
0.001300 0.000956 0.000000
0.001309 0.000959 0.000000
0.001306 0.000953 0.000000
0.001315 0.000950 0.000000
0.001313 0.000938 0.000000
0.001321 0.000947 0.000000
0.001324 0.000932 0.000000
0.001325 0.000924 0.000000
0.001328 0.000929 0.000000
0.001332 0.000918 0.000000
0.001338 0.000914 0.000000
0.001338 0.000908 0.000000
0.000053 0.000445 0.000000
0.000058 0.000451 0.000000
0.000055 0.000461 0.000000
0.000051 0.000460 0.000000
0.000060 0.000466 0.000000
0.000053 0.000473 0.000000
0.000057 0.000476 0.000000
0.000058 0.000480 0.000000
0.000052 0.000483 0.000000
0.000057 0.000486 0.000000
0.000056 0.000497 0.000000
0.000059 0.000496 0.000000
0.001183 0.001046 0.000000
0.001272 0.001026 0.000000
[...]
POINT_DATA 11907
SCALARS density float 1
LOOKUP_TABLE default
4428.226309
4431.090424
4424.723017
4427.237631
4431.232080
4426.083120
4433.737560
4427.446934
4430.206947
4419.948646
4429.897040
4406.202715
4428.823121
4416.599854
4413.011158
4439.954754
4437.821436
4437.382093
4451.835740
4451.281175
4429.194141
4420.873959
4399.479716
4440.869933
4425.014314
4427.356867
4452.289886
4420.482256
4426.889307
4447.456336
4428.995342
4406.277757
4430.841931
4431.411597
4429.773080
4428.838203
4432.386480
4422.513823
4431.471094
4423.969836
4424.497565
4433.974048
4449.408786
4409.022523
4413.344964
4426.647126
4418.986262
4412.358616
4421.996632
4431.627161
4443.493412
4460.564440
4438.130963
4432.628679
4420.723693
4397.267544
4442.008726
4397.728912
4434.292694
4455.596371
4430.656362
4438.799683
4408.413957
4405.639667
4421.190488
4424.456062
4437.091588
4418.807613
4430.665497
4420.277355
4450.909328
4394.038427
4462.882113
4380.006693
4447.447550
4401.296320
4465.504918
4445.589150
4429.629505
4397.603378
4415.444369
4411.737830
4474.459442
4458.670836
4437.461043
4388.625270
4423.962309
4419.799661
4405.238907
4465.739888
4411.311210
4388.256530
4416.867185
4425.155089
4439.547431
4404.042988
4424.638111
4439.469477
4443.805009
4417.257479
4421.805160
4450.862885
4457.710138
4387.590688
4472.073954
4390.228558
4509.124922
4405.497454
4434.676103
4389.752659
4410.799135
4471.699091
4445.669821
4434.692486
4434.385912
4381.977804
4433.887457
4421.555593
4413.738921
4434.349113
4414.710072
4473.703474
4417.610494
4480.656212
4445.879040
4372.359240
4490.841750
4442.331294
4436.763732
4423.750859
4435.804983
4438.470341
4400.886063
4442.958678
4430.738163
4440.148013
4474.241632
4368.082281
4462.886458
4432.949860
4418.099040
4445.875037
4474.249863
4381.005468
4463.625879
4397.392183
4451.402291
4440.040833
4439.760044
4387.161012
4418.978891
4443.634511
4427.123299
4420.042136
4415.431478
4464.284469
4444.489675
4420.948127
4394.250505
4416.680628
4434.876953
4435.198706
4439.618948
4410.629356
4436.648170
4421.056220
4456.434918
4375.854533
4427.024169
4471.464821
4426.573922
4424.571491
4438.956694
4428.647934
4363.902694
4434.503729
4396.215619
4444.414237
4388.769470
4446.277023
4488.996668
4458.984802
4437.680666
4452.484922
4446.358848
4452.730562
4379.697093
4439.128180
4396.520282
4417.571257
4452.682320
4414.318536
4422.012844
4431.503642
4412.997114
4443.295913
4434.168232
4447.590531
4395.285195
4444.427773
4437.437254
4402.648926
4448.062776
4419.869699
4421.228550
4443.869029
4473.008644
4467.789048
4428.648666
4434.373720
4420.701853
4434.894218
4458.541746
4449.780722
4427.076985
4456.991103
4439.921685
4387.457248
4419.519275
4460.553629
4447.630780
4434.021950
4441.522297
4443.026914
4424.945820
4434.095714
4440.586390
4436.673555
4430.906469
4432.846172
4448.504790
4428.479656
4409.026484
4433.024086
4430.778000
4443.243900
4414.619840
4428.020540
4373.415791
4386.004678
4423.819976
4463.109340
4419.923671
4436.383278
4401.862451
4458.674019
4411.875584
4424.851840
4395.483189
4451.207229
4422.805859
4417.681025
4457.226620
4390.204454
4411.473998
4408.150680
4431.813369
4418.282148
4414.283728
4433.383363
4432.908667
4437.079129
4437.633133
4425.142572
4438.811165
4428.171829
4432.402801
4422.502168
4437.892091
4454.398858
4391.538810
4449.344998
4406.085627
4473.854297
4440.975828
4421.324590
4418.250827
4424.083401
4457.004730
4417.810620
4412.578039
4436.521406
4408.611318
4443.765950
4429.211786
4404.730791
4452.845678
4428.190893
4432.758037
4414.300669
4424.155076
4440.165311
4410.282573
4428.916397
4437.672831
4425.565199
4455.256449
4433.083779
4471.290026
4431.292354
4434.717790
4439.621494
4395.005165
4437.934554
4442.430380
4397.216235
4454.715178
4443.325444
4425.063340
4443.618125
4436.251359
4413.673243
4457.227946
4445.488095
4417.032000
4462.078653
4400.883065
4418.799571
4419.251309
4450.395767
4423.554890
4415.149908
4459.215831
4395.153674
4443.427359
4457.078260
4392.251716
4378.369642
4393.082495
4428.042361
4525.247459
4409.782108
4442.352450
4427.604574
4396.995964
4457.807322
4393.790149
4388.141728
4439.830176
4448.065527
4432.276263
4412.341305
4434.548473
4424.360133
4389.824470
4419.284468
4428.316101
4455.077420
4426.023821
4453.785195
4404.409116
4422.904757
4442.946207
4427.764682
4488.305641
4412.535846
4416.587297
4458.807637
4412.463444
4438.173697
4460.587196
4345.074263
4414.138120
4407.122311
4435.811907
4426.221169
4429.553913
4410.072464
4470.667600
4430.375412
4393.511110
4416.846906
4446.258259
4413.892275
4423.788393
4441.849420
4442.909330
4427.046668
4447.601128
4415.235859
4411.698302
4452.503815
4428.623379
4423.840579
4419.945402
4408.925514
4458.276828
4401.022092
4370.220699
4453.285184
4420.386199
4390.810899
4431.284096
4415.189475
4438.839696
4432.071105
4424.736171
4427.873272
4425.373674
4377.903451
4397.213344
4419.847226
4433.687408
4471.282715
4417.443735
4453.534566
4465.534656
4403.473247
4437.392978
4445.402030
4426.845997
4416.275924
4420.031322
4409.797159
4438.287611
4437.693631
4444.540509
4433.109440
4448.954613
4436.287707
4441.618285
4421.702461
4401.992734
4456.764592
4474.759347
4428.520025
4416.723963
4438.689605
4413.893315
4433.642597
4401.024959
4375.320883
4432.471488
4420.863385
4454.925497
4392.259410
4400.524909
4455.822856
4469.235611
4423.771357
4410.755175
4447.001693
4445.595074
4420.529901
4449.363898
4461.393818
4414.742892
4422.061958
4416.321833
4440.696845
4427.810601
4461.590429
4396.927976
4402.736267
4409.091789
4444.393252
4377.382172
4430.365349
4436.584338
4452.517029
4432.048118
4439.262536
4424.952983
4468.048351
4441.693391
4412.306782
4455.880858
4454.982952
4381.686047
4408.765673
4416.119364
4416.806446
4464.743501
4406.841068
4437.279846
4416.294841
4420.378765
4396.233310
4430.952877
4434.703741
4432.742180
4438.599902
4414.635860
4450.885612
4419.866917
4445.200961
4450.494499
4441.340994
4447.019732
4390.087144
4400.294788
4449.593580
4427.691724
4430.616069
4436.344797
4448.144865
4445.775448
4415.457178
4384.742826
4432.072432
4392.797167
4392.606212
4424.307747
4435.038673
4424.545376
4431.962816
4428.351625
4439.227109
4448.076741
4413.824100
4452.146006
4417.802423
4429.352454
4437.785829
4441.749029
4416.528291
4453.181700
4385.462021
4429.940445
4443.576281
4431.954851
4393.690793
4414.982292
4427.049458
4419.558252
4421.744702
4431.543554
4435.686812
4475.708741
4438.793669
4411.599153
4451.430250
4415.244875
4449.997604
4408.769922
4429.597887
4406.864742
4426.111077
4437.262936
4394.893585
4428.688841
4426.984401
4425.385253
4441.141178
4438.914156
4429.170823
4425.257898
4415.227800
4463.199656
4387.042906
4423.291465
4437.255905
4387.093775
4483.347372
4435.679194
4454.058746
4429.506182
4430.274493
4443.015414
4442.545303
4468.210714
4416.169128
4484.504469
4500.615069
4443.287609
4439.296227
4390.511096
4455.628154
4448.953078
4417.513900
4433.000259
4445.411361
4453.741439
4440.483038
4438.609425
4426.911329
4404.988049
4414.122902
4449.837776
4435.347681
4467.881826
4458.808101
4459.931094
4461.378026
4437.599590
4433.063499
4400.268555
4427.722368
4422.527074
4420.325928
4432.558453
4450.545313
4418.165569
4452.885112
4412.489842
4449.854949
4439.849247
4452.923054
4464.496259
4403.929517
4430.822349
4414.179167
4426.624932
4423.185014
4405.997419
4396.573222
4428.017189
4430.355780
4455.233643
4419.136542
4455.508977
4435.351272
4400.758691
4407.545333
4440.859264
4419.060757
4436.856445
4439.944714
4429.370931
4438.049969
4427.235895
4441.350925
4442.384971
4468.763471
4426.263852
4478.274310
4443.252275
4454.925091
4488.768674
4436.561203
4440.503651
4419.823983
4409.299980
4429.927280
4423.066722
4437.139568
4428.283300
4445.259402
4445.965181
4438.948787
4435.119334
4428.568230
4438.230236
4402.035814
4422.403888
4430.204693
4393.302162
4393.607928
4458.362929
4463.642542
4394.634376
4474.707271
4426.516880
4421.050108
4430.080008
4475.693362
4439.146433
4420.095740
4364.271309
4439.563358
4380.102441
4458.539147
4480.076594
4419.605770
4484.270293
4456.668485
4438.766650
4421.254375
4438.261909
4422.915864
4407.444566
4433.004239
4441.225240
4425.892464
4458.380677
4411.607883
4424.902845
4405.557578
4452.501658
4437.229611
4445.373136
4374.469825
4435.721479
4435.148375
4430.483897
4418.290878
4433.789212
4436.265726
4450.245234
4423.243263
4450.127196
4414.588372
4409.776927
4346.664238
4452.754975
4416.862196
4447.754916
4399.216781
4416.087293
4451.655992
4427.802534
4444.023678
4435.933894
4433.456171
4414.039047
4436.099992
4424.433163
4423.319241
4459.064191
4411.365345
4439.281471
4441.061883
4446.471148
4412.042783
4414.014591
4450.416794
4433.547489
4467.650713
4380.915728
4452.597928
4434.236641
4441.517660
4431.947317
4446.563916
4440.711032
4367.946044
4371.681572
4439.944400
4376.343395
4407.884242
4397.408568
4416.947914
4433.085643
4418.501513
4425.613511
4421.681841
4435.269071
4431.715208
4431.190300
4430.802763
4448.536957
4422.332288
4411.176359
4398.314293
4426.286065
4449.277662
4432.644090
4432.066001
4455.781062
4419.874408
4440.506460
4396.650661
4352.859763
4394.399918
4421.645448
4372.774670
4368.895587
4448.620974
4429.826055
4465.000517
4454.571021
4434.626550
4412.207691
4431.731738
4421.538438
4443.068998
4448.626644
4419.640885
4428.651898
4430.498237
4430.751974
4430.894053
4430.721872
4430.190430
4429.787453
4429.339178
4429.491965
4430.239745
4431.401175
4431.872883
4431.611088
4431.086913
4430.493145
4429.342184
4430.082307
4428.986876
4428.821081
4429.493704
4430.654723
4432.138622
4433.290729
4433.635093
4432.059877
4429.648693
4428.309739
4428.861384
4430.277729
4430.872580
4429.612826
4430.166805
4431.429512
4431.914870
4431.476912
4430.144519
4428.733217
4427.242622
4427.121739
4428.623696
4431.911082
4433.273619
4432.167175
4430.555807
4428.894956
4430.062425
4429.828857
4428.668506
4428.187741
4428.722266
4430.228260
4431.742503
4433.663500
4433.679709
4432.330181
4428.775416
4426.894630
4427.091062
4428.645485
4429.365859
4429.975265
4429.826330
4431.462543
4431.834170
4431.455429
4429.928553
4428.441796
4426.421034
4426.496246
4427.736262
4431.329720
4433.040176
4432.461854
4429.490374
4430.241311
4429.909565
4429.530689
4428.796517
4427.400465
4428.952824
4429.337190
4431.972465
4432.694098
4434.137529
4430.963619
4429.491215
4425.499751
4428.131560
4428.296242
4429.564769
4429.822613
4429.658419
4431.388962
4431.636765
4431.310400
4429.603316
4428.168076
4426.049449
4426.098308
4427.495431
4430.569204
4432.904109
4431.849412
4428.872358
4428.880777
4429.657236
4429.584628
4428.428198
4427.575286
4428.212361
4429.677963
4431.058210
4433.060793
4433.113099
4431.353416
4428.520756
4425.529752
4426.745625
4428.011167
4429.145259
4429.141509
4429.908571
4430.756135
4431.703249
4431.058493
4429.367605
4427.949026
4425.707971
4425.957526
4426.972707
4430.346955
4432.662407
4431.819557
4429.658880
4429.535340
4429.473579
4429.444401
4428.281716
4427.363179
4428.027073
4429.426837
4430.835486
4432.722470
4432.780849
4431.036892
4428.332762
4425.255451
4427.125491
4427.912902
4430.320433
4429.171854
4429.571865
4430.908961
4431.421742
4430.797806
4429.306789
4427.342170
4425.817976
4425.643114
4426.720314
4429.875155
4432.392804
4430.905975
4428.132350
4424.692865
4429.271936
4429.372275
4428.104192
4427.018670
4427.983218
4428.864091
4430.986032
4432.131297
4432.866852
4430.636769
4428.135049
4424.988788
4425.748417
4426.878536
4427.427088
4428.938298
4429.371065
4430.765128
4431.242642
4430.585525
4429.073490
4427.260969
4425.518716
4425.790910
4426.351130
4429.779478
4432.520785
4431.657376
4428.322541
4430.270943
4439.435511
4453.154659
4397.733783
4466.737904
4446.109323
4453.139313
4432.327038
4420.566852
4403.126093
4461.951865
4468.228733
4420.109470
4450.042273
4469.293347
4434.135027
4416.826903
4428.985524
4429.246003
4428.057607
4426.587832
4427.904685
4428.654920
4430.637637
4432.215030
4432.174881
4430.738912
4428.376481
4424.465848
4427.859790
4428.630600
4430.181234
4448.095428
4410.070268
4436.424318
4425.483682
4426.086645
4442.516706
4435.945430
4442.255788
4399.252105
4389.345726
4429.755108
4433.295631
4424.243863
4386.624906
4467.240944
4404.102610
4428.501619
4429.346275
4430.394447
4431.166005
4430.417097
4428.736495
4427.397511
4425.009966
4426.284607
4425.827513
4429.549641
4432.964004
4431.061446
4429.202087
4430.065854
4447.886577
4408.654099
4439.785292
4447.581629
4414.792254
4452.082340
4411.122443
4423.193878
4416.761901
4437.274469
4463.307301
4416.429548
4441.093263
4451.309944
4411.627722
4418.647510
4428.776347
4429.317472
4427.700335
4426.690035
4427.359137
4429.054853
4429.919688
4432.550654
4431.044787
4431.194372
4427.918365
4424.335643
4427.401802
4426.885222
4430.715175
4443.346844
4432.566091
4419.371413
4395.816287
4383.640643
4451.367831
4436.079539
4416.502136
4435.725116
4434.587566
4410.221489
4430.147644
4378.150137
4411.546681
4435.853988
4453.270787
4428.371178
4429.454654
4430.006921
4431.229306
4430.174498
4428.854253
4426.977467
4425.338195
4425.840709
4425.713613
4428.822704
4432.971450
4429.892137
4428.164865
4428.222102
4456.113872
4410.545786
4447.709364
4453.108676
4430.472115
4437.561164
4437.146362
4465.831860
4426.374927
4445.553374
4418.636911
4440.461799
4433.991889
4414.555249
4432.867550
4420.130101
4428.370597
4429.264621
4427.502427
4426.764220
4427.012721
4429.203976
4429.746603
4432.252306
4430.955303
4430.656659
4428.027790
4424.143561
4426.523820
4427.616256
4425.296753
4429.851397
4422.734844
4433.093597
4384.695652
4480.819761
4399.687200
4425.370839
4453.754465
4461.792531
4385.216077
4436.669116
4419.845622
4402.190368
4419.390762
4452.727002
4418.320987
4428.412131
4429.513749
4429.734103
4431.276911
4429.963015
4428.920810
4426.591612
4425.798384
4425.578059
4426.007569
4428.076338
4433.353969
4428.914587
4428.746164
4428.495898
4432.616503
4452.687767
4453.730031
4452.394060
4340.252168
4437.607249
4429.008544
4428.048947
4419.871344
4442.548165
4429.430189
4469.240390
4463.306707
4409.582216
4479.495304
4416.731921
4428.171646
4429.119721
4427.431875
4426.568833
4426.860340
4428.968037
4429.565596
4432.233671
4430.629871
4430.831795
4428.039983
4424.296279
4427.302271
4427.158375
4426.298860
4419.092933
4405.257613
4374.450989
4385.542978
4395.572470
4481.354613
4425.077879
4424.095273
4416.131557
4424.981381
4439.948490
4396.285140
4476.238850
4372.520659
4421.171410
4418.182175
4428.252057
4429.157614
4429.874717
4430.802647
4430.173925
4428.322857
4426.961497
4425.457234
4426.634937
4425.217274
4428.767716
4433.094667
4430.049303
4429.028457
4427.739452
4439.767620
4449.316079
4393.782119
4403.361925
4443.784759
4435.199541
4431.516069
4422.916543
4493.514264
4455.440388
4379.195839
4411.928677
4471.269911
4446.693388
4407.340035
4401.731312
4428.162958
4428.771579
4427.652803
4426.129220
4427.133734
4428.320218
4429.869095
4431.704582
4430.910805
4430.562063
4428.054987
4424.544057
4427.341843
4426.943446
4428.815308
4446.893378
4436.924353
4432.695046
4451.854927
4373.375903
4418.631942
4426.026568
4437.593831
4395.989010
4442.237358
4447.936841
4501.187895
4408.153430
4417.607766
4427.429179
4439.544963
4428.084984
4429.049105
4429.712983
4430.665475
4430.102172
4428.233597
4426.771163
4425.978455
4426.591029
4425.145019
4428.318735
4432.958228
4430.277000
4428.837579
4427.382761
4424.940634
4444.895366
4400.060742
4453.147746
4453.050595
4432.065622
4454.422183
4475.313241
4402.030426
4455.806664
4420.006192
4434.741555
4474.538974
4399.349127
4464.307250
4406.713966
4428.026946
4428.955370
4427.243698
4426.674833
4426.337120
4428.899430
4429.155908
4431.780464
4430.579562
4430.422539
4427.452835
4424.439591
4425.608674
4426.470952
4424.698263
4428.479428
4480.877004
4447.315678
4373.167326
4438.616482
4420.135272
4434.400644
4425.660178
4475.197153
4432.354273
4441.087606
4436.521044
4432.303839
4411.722425
4415.880771
4422.046000
4427.881880
4429.331221
4429.122401
4430.925594
4430.117540
4428.121930
4426.752719
4426.483961
4426.183657
4425.305266
4427.379922
4432.639433
4428.573102
4427.566403
4425.505266
4426.876999
4425.637378
4437.221667
4419.683469
4398.252253
4439.730448
4448.706456
4433.909270
4447.776649
4435.092114
4446.998056
4412.730963
4391.244391
4386.354627
4476.530377
4443.152693
4427.760314
4429.047470
4427.156336
4426.836333
4426.077052
4429.261883
4428.745227
4431.905279
4430.100900
4430.292687
4427.154989
4424.463663
4425.487092
4425.770883
4426.407054
4404.358973
4447.061703
4405.635511
4417.913817
4445.671586
4432.490387
4425.640020
4433.688264
4413.807657
4446.206225
4412.554319
4414.133969
4426.686339
4395.128172
4393.630827
4450.472261
4427.706643
4429.452308
4428.828425
4431.291490
4429.673625
4428.309253
4426.411655
4427.001089
4426.095271
4425.570469
4427.028954
4432.300473
4428.649443
4427.649894
4425.277702
4433.568491
4423.587745
4410.689029
4458.686200
4388.477054
4413.184783
4422.653125
4448.901387
4429.071542
4413.767921
4441.335624
4399.652021
4432.692847
4459.335847
4412.207907
4399.352037
4427.936733
4428.927534
4427.400841
4426.478192
4426.526744
4428.470522
4429.027132
4432.071258
4429.883104
4430.400887
4427.355646
4425.063213
4425.183437
4425.811686
4424.508047
4427.921193
4420.353349
4422.697871
4418.488254
4402.633400
4442.314600
4420.668439
4426.391223
4421.089030
4451.631622
4500.204406
4439.845152
4434.519595
4406.260086
4459.195439
4427.684826
4427.917246
4429.071545
4429.315141
4430.890451
4429.664437
4428.222209
4426.708537
4426.811217
4427.212334
4425.372321
4426.818735
4432.459288
4429.514160
4427.470054
4426.589705
4432.339043
4411.802671
4439.137868
4438.554562
4392.330233
4430.354894
4458.004668
4418.856762
4444.974452
4416.820628
4465.524538
4398.678101
4447.078679
4453.620641
4394.587130
4417.093923
4428.269129
4428.992593
4427.445508
4426.580482
4426.399705
4428.204683
4429.259959
4431.774976
4430.323830
4429.812391
4428.098891
4424.612501
4426.060919
4425.091225
4425.373875
4445.944027
4450.621668
4443.464425
4455.621239
4386.839467
4416.229732
4444.707994
4365.707457
4470.284879
4442.105681
4443.195589
4402.396711
4467.689149
4484.513906
4394.030780
4413.499986
4428.032467
4428.755249
4429.494123
4430.320585
4430.517557
4427.290886
4427.582226
4426.562683
4427.867219
4424.768859
4427.044745
4432.845236
4428.469880
4426.639694
4426.326733
4442.800584
4436.597802
4420.967294
4465.468507
4387.588729
4435.774635
4435.846110
4429.593402
4472.885576
4479.399449
4472.504888
4405.189528
4372.534481
4478.094400
4363.279529
4420.938426
4428.105453
4429.314393
4427.361999
4427.034647
4425.751606
4429.377370
4428.653769
4431.841046
4430.878294
4430.301889
4427.236452
4425.378599
4424.935363
4424.322808
4424.808059
4422.493067
4436.342555
4406.279625
4383.179044
4423.808562
4444.032938
4442.474785
4422.920258
4380.377091
4452.897582
4394.385216
4453.211984
4439.879364
4404.156206
4400.001992
4443.237553
4427.948210
4429.410155
4428.293887
4431.663533
4430.091321
4428.333403
4427.230527
4428.611683
4426.554525
4425.079597
4428.007038
4431.453436
4428.343387
4427.753729
4425.361968
4424.696064
4412.107937
4432.192721
4432.808186
4454.997615
4424.855217
4433.786214
4495.148858
4435.623336
4405.792845
4425.498459
4389.381795
4483.456091
4418.129378
4563.020467
4411.986492
4428.074740
4429.167238
4428.027508
4426.740238
4426.486778
4428.991614
4428.456815
4432.335517
4430.604909
4429.771574
4427.162666
4426.860493
4425.393081
4426.104586
4422.785316
4438.834396
4419.869180
4435.085509
4436.180608
4466.476950
4464.334686
4440.929639
4456.132882
4490.268406
4437.505174
4417.677000
4441.679202
4443.395583
4430.447508
4273.240542
4428.662793
4428.372687
4429.609502
4428.393111
4431.711852
4429.577742
4428.435202
4426.367788
4429.018328
4425.723107
4426.502847
4427.550956
4430.964415
4427.601907
4427.531291
4424.098121
4423.435059
4404.155206
4387.612181
4400.710283
4448.536372
4412.895128
4437.572994
4441.583950
4448.755668
4414.994096
4402.740768
4442.857656
4444.699631
4437.742198
4381.770883
4404.123741