# vtk DataFile Version 2.0
mfree iwf
ASCII

DATASET UNSTRUCTURED_GRID
POINTS 11907 float
-0.000000 0.000445 0.000000
-0.000000 0.000450 0.000000
-0.000000 0.000455 0.000000
-0.000000 0.000460 0.000000
-0.000000 0.000465 0.000000
-0.000000 0.000470 0.000000
-0.000000 0.000475 0.000000
-0.000000 0.000480 0.000000
-0.000000 0.000485 0.000000
0.000000 0.000490 0.000000
-0.000001 0.000496 0.000000
0.000002 0.000500 0.000000
0.001244 0.001044 0.000000
0.001253 0.001041 0.000000
0.001296 0.001020 0.000000
0.001300 0.001017 0.000000
0.001299 0.001017 0.000000
0.001306 0.001014 0.000000
0.001312 0.001009 0.000000
0.001308 0.001012 0.000000
0.001320 0.001004 0.000000
0.001343 0.000990 0.000000
0.001347 0.000984 0.000000
0.001350 0.000981 0.000000
0.001353 0.000977 0.000000
0.001356 0.000973 0.000000
0.001359 0.000969 0.000000
0.001361 0.000964 0.000000
0.001363 0.000961 0.000000
0.001367 0.000956 0.000000
0.001371 0.000951 0.000000
0.001388 0.000938 0.000000
0.000005 0.000445 0.000000
0.000005 0.000450 0.000000
0.000005 0.000455 0.000000
0.000005 0.000460 0.000000
0.000005 0.000465 0.000000
0.000005 0.000470 0.000000
0.000005 0.000475 0.000000
0.000005 0.000480 0.000000
0.000005 0.000485 0.000000
0.000006 0.000489 0.000000
0.000003 0.000496 0.000000
0.000006 0.000499 0.000000
0.001291 0.001022 0.000000
0.001293 0.001012 0.000000
0.001325 0.000999 0.000000
0.001331 0.000995 0.000000
0.001335 0.000992 0.000000
0.001338 0.000990 0.000000
0.001339 0.000988 0.000000
0.001342 0.000983 0.000000
0.001344 0.000980 0.000000
0.001348 0.000975 0.000000
0.001353 0.000969 0.000000
0.001356 0.000964 0.000000
0.001359 0.000958 0.000000
0.001365 0.000951 0.000000
0.001367 0.000947 0.000000
0.001371 0.000944 0.000000
0.001381 0.000939 0.000000
0.001382 0.000937 0.000000
0.001378 0.000941 0.000000
0.001386 0.000936 0.000000
0.000010 0.000445 0.000000
0.000010 0.000450 0.000000
0.000009 0.000455 0.000000
0.000010 0.000460 0.000000
0.000010 0.000465 0.000000
0.000010 0.000469 0.000000
0.000010 0.000475 0.000000
0.000011 0.000479 0.000000
0.000009 0.000486 0.000000
0.000012 0.000489 0.000000
0.000008 0.000497 0.000000
0.000011 0.000498 0.000000
0.001289 0.001018 0.000000
0.001296 0.001010 0.000000
0.001312 0.001005 0.000000
0.001319 0.001001 0.000000
0.001322 0.000999 0.000000
0.001327 0.000996 0.000000
0.001317 0.000995 0.000000
0.001324 0.000991 0.000000
0.001330 0.000988 0.000000
0.001335 0.000984 0.000000
0.001342 0.000976 0.000000
0.001346 0.000972 0.000000
0.001345 0.000965 0.000000
0.001350 0.000962 0.000000
0.001354 0.000961 0.000000
0.001362 0.000953 0.000000
0.001373 0.000942 0.000000
0.001375 0.000940 0.000000
0.001379 0.000933 0.000000
0.001379 0.000928 0.000000
0.000014 0.000445 0.000000
0.000016 0.000450 0.000000
0.000014 0.000456 0.000000
0.000017 0.000460 0.000000
0.000014 0.000469 0.000000
0.000015 0.000465 0.000000
0.000014 0.000476 0.000000
0.000017 0.000480 0.000000
0.000014 0.000484 0.000000
0.000016 0.000489 0.000000
0.000014 0.000495 0.000000
0.000016 0.000497 0.000000
0.000025 0.000500 0.000000
0.001300 0.001010 0.000000
0.001314 0.001002 0.000000
0.001308 0.001000 0.000000
0.001320 0.000993 0.000000
0.001331 0.000993 0.000000
0.001330 0.000984 0.000000
0.001337 0.000979 0.000000
0.001333 0.000978 0.000000
0.001339 0.000974 0.000000
0.001345 0.000960 0.000000
0.001350 0.000968 0.000000
0.001353 0.000954 0.000000
0.001358 0.000954 0.000000
0.001358 0.000949 0.000000
0.001361 0.000947 0.000000
0.001365 0.000941 0.000000
0.001369 0.000938 0.000000
0.001371 0.000934 0.000000
0.001377 0.000925 0.000000
0.000019 0.000445 0.000000
0.000021 0.000450 0.000000
0.000018 0.000455 0.000000
0.000022 0.000459 0.000000
0.000019 0.000469 0.000000
0.000024 0.000467 0.000000
0.000018 0.000474 0.000000
0.000022 0.000479 0.000000
0.000019 0.000486 0.000000
0.000021 0.000491 0.000000
0.000020 0.000497 0.000000
0.000022 0.000499 0.000000
0.000039 0.000500 0.000000
0.001294 0.000999 0.000000
0.001302 0.001003 0.000000
0.001309 0.000995 0.000000
0.001314 0.000998 0.000000
0.001323 0.000986 0.000000
0.001321 0.000982 0.000000
0.001333 0.000974 0.000000
0.001324 0.000980 0.000000
0.001336 0.000969 0.000000
0.001334 0.000960 0.000000
0.001338 0.000955 0.000000
0.001344 0.000954 0.000000
0.001352 0.000948 0.000000
0.001356 0.000939 0.000000
0.001362 0.000938 0.000000
0.001364 0.000935 0.000000
0.001371 0.000929 0.000000
0.001375 0.000929 0.000000
0.001373 0.000922 0.000000
0.000024 0.000445 0.000000
0.000026 0.000450 0.000000
0.000024 0.000455 0.000000
0.000026 0.000461 0.000000
0.000021 0.000464 0.000000
0.000025 0.000472 0.000000
0.000023 0.000476 0.000000
0.000027 0.000481 0.000000
0.000023 0.000485 0.000000
0.000026 0.000488 0.000000
0.000026 0.000492 0.000000
0.000027 0.000500 0.000000
0.001273 0.001033 0.000000
0.001302 0.001006 0.000000
0.001307 0.001005 0.000000
0.001319 0.000988 0.000000
0.001314 0.000990 0.000000
0.001329 0.000981 0.000000
0.001327 0.000974 0.000000
0.001317 0.000983 0.000000
0.001323 0.000971 0.000000
0.001342 0.000970 0.000000
0.001339 0.000963 0.000000
0.001340 0.000966 0.000000
0.001349 0.000957 0.000000
0.001349 0.000952 0.000000
0.001360 0.000942 0.000000
0.001355 0.000944 0.000000
0.001367 0.000930 0.000000
0.001359 0.000932 0.000000
0.001367 0.000925 0.000000
0.001369 0.000919 0.000000
0.000030 0.000445 0.000000
0.000031 0.000450 0.000000
0.000029 0.000455 0.000000
0.000031 0.000459 0.000000
0.000031 0.000464 0.000000
0.000028 0.000468 0.000000
0.000031 0.000472 0.000000
0.000030 0.000477 0.000000
0.000030 0.000486 0.000000
0.000031 0.000492 0.000000
0.000033 0.000497 0.000000
0.000030 0.000499 0.000000
0.000048 0.000500 0.000000
0.001291 0.001007 0.000000
0.001302 0.000993 0.000000
0.001310 0.000990 0.000000
0.001307 0.000991 0.000000
0.001313 0.000986 0.000000
0.001317 0.000974 0.000000
0.001329 0.000962 0.000000
0.001330 0.000970 0.000000
0.001332 0.000965 0.000000
0.001341 0.000958 0.000000
0.001341 0.000944 0.000000
0.001345 0.000949 0.000000
0.001348 0.000945 0.000000
0.001350 0.000934 0.000000
0.001351 0.000941 0.000000
0.001356 0.000929 0.000000
0.001362 0.000929 0.000000
0.001365 0.000923 0.000000
0.001366 0.000917 0.000000
0.000035 0.000445 0.000000
0.000035 0.000450 0.000000
0.000034 0.000457 0.000000
0.000038 0.000454 0.000000
0.000035 0.000467 0.000000
0.000036 0.000472 0.000000
0.000032 0.000479 0.000000
0.000041 0.000479 0.000000
0.000034 0.000483 0.000000
0.000035 0.000488 0.000000
0.000037 0.000491 0.000000
0.000036 0.000498 0.000000
0.001232 0.001045 0.000000
0.001268 0.001035 0.000000
0.001299 0.000998 0.000000
0.001302 0.000988 0.000000
0.001315 0.000978 0.000000
0.001304 0.000979 0.000000
0.001322 0.000976 0.000000
0.001319 0.000968 0.000000
0.001327 0.000967 0.000000
0.001317 0.000960 0.000000
0.001324 0.000952 0.000000
0.001337 0.000947 0.000000
0.001340 0.000950 0.000000
0.001342 0.000941 0.000000
0.001354 0.000934 0.000000
0.001344 0.000925 0.000000
0.001356 0.000921 0.000000
0.001359 0.000925 0.000000
0.001361 0.000919 0.000000
0.001361 0.000913 0.000000
0.000040 0.000445 0.000000
0.000041 0.000450 0.000000
0.000036 0.000461 0.000000
0.000040 0.000458 0.000000
0.000041 0.000463 0.000000
0.000039 0.000468 0.000000
0.000041 0.000473 0.000000
0.000037 0.000477 0.000000
0.000041 0.000488 0.000000
0.000042 0.000491 0.000000
0.000041 0.000497 0.000000
0.000044 0.000498 0.000000
0.001078 0.001017 0.000000
0.001289 0.001014 0.000000
0.001291 0.001003 0.000000
0.001297 0.000985 0.000000
0.001311 0.000981 0.000000
0.001312 0.000974 0.000000
0.001310 0.000977 0.000000
0.001323 0.000964 0.000000
0.001327 0.000956 0.000000
0.001334 0.000956 0.000000
0.001325 0.000960 0.000000
0.001326 0.000942 0.000000
0.001336 0.000940 0.000000
0.001340 0.000933 0.000000
0.001347 0.000939 0.000000
0.001345 0.000935 0.000000
0.001351 0.000929 0.000000
0.001352 0.000924 0.000000
0.001357 0.000917 0.000000
0.001357 0.000910 0.000000
0.000044 0.000445 0.000000
0.000046 0.000450 0.000000
0.000044 0.000455 0.000000
0.000046 0.000461 0.000000
0.000044 0.000467 0.000000
0.000046 0.000473 0.000000
0.000046 0.000478 0.000000
0.000039 0.000483 0.000000
0.000051 0.000485 0.000000
0.000045 0.000483 0.000000
0.000048 0.000493 0.000000
0.000050 0.000498 0.000000
0.001084 0.001021 0.000000
0.001287 0.001023 0.000000
0.001304 0.000997 0.000000
0.001306 0.000983 0.000000
0.001301 0.000981 0.000000
0.001314 0.000969 0.000000
0.001311 0.000965 0.000000
0.001318 0.000964 0.000000
0.001317 0.000955 0.000000
0.001329 0.000951 0.000000
0.001333 0.000951 0.000000
0.001339 0.000937 0.000000
0.001331 0.000941 0.000000
0.001336 0.000933 0.000000
0.001346 0.000930 0.000000
0.001347 0.000923 0.000000
0.001347 0.000919 0.000000
0.001352 0.000918 0.000000
0.001353 0.000914 0.000000
0.001353 0.000908 0.000000
0.000049 0.000445 0.000000
0.000053 0.000450 0.000000
0.000049 0.000454 0.000000
0.000052 0.000455 0.000000
0.000048 0.000465 0.000000
0.000050 0.000472 0.000000
0.000052 0.000467 0.000000
0.000051 0.000478 0.000000
0.000047 0.000488 0.000000
0.000052 0.000491 0.000000
0.000057 0.000492 0.000000
0.000053 0.000498 0.000000
0.001174 0.001047 0.000000
0.001277 0.001022 0.000000
0.001287 0.001010 0.000000
0.001297 0.000988 0.000000
0.001302 0.000975 0.000000
0.001308 0.000971 0.000000
0.001304 0.000970 0.000000
0.001308 0.000964 0.000000
0.001312 0.000954 0.000000
0.001321 0.000957 0.000000
0.001318 0.000951 0.000000
0.001327 0.000947 0.000000
0.001325 0.000935 0.000000
0.001333 0.000944 0.000000
0.001337 0.000928 0.000000
0.001337 0.000921 0.000000
0.001340 0.000926 0.000000
0.001344 0.000915 0.000000
0.001349 0.000911 0.000000
0.001350 0.000905 0.000000
0.000053 0.000445 0.000000
0.000058 0.000451 0.000000
0.000055 0.000461 0.000000
0.000051 0.000460 0.000000
0.000060 0.000466 0.000000
0.000053 0.000473 0.000000
0.000057 0.000476 0.000000
0.000057 0.000480 0.000000
0.000052 0.000483 0.000000
0.000057 0.000487 0.000000
0.000056 0.000497 0.000000
0.000059 0.000496 0.000000
0.001198 0.001047 0.000000
0.001286 0.001025 0.000000
[...]
POINT_DATA 11907
SCALARS density float 1
LOOKUP_TABLE default
4428.097506
4430.879494
4424.633526
4427.567172
4431.414336
4425.964451
4433.917871
4427.303481
4430.199913
4419.799155
4429.777637
4406.200790
4428.186395
4416.599988
4412.641082
4440.352397
4438.135377
4436.809993
4453.933665
4452.077217
4428.233016
4420.285112
4397.552465
4443.175933
4424.493132
4426.794697
4451.517511
4420.319500
4429.599964
4446.875679
4429.237019
4406.298963
4430.760326
4431.635901
4430.083216
4428.307176
4431.896849
4422.698959
4431.156955
4423.796647
4424.742573
4433.636871
4449.293785
4409.060136
4410.904273
4425.603327
4418.258478
4412.713803
4420.634309
4432.268896
4444.513593
4459.805279
4437.549463
4431.782995
4425.029806
4395.629332
4443.971851
4397.632397
4433.335347
4457.225274
4432.227411
4439.337071
4408.756430
4405.520879
4421.213637
4424.653711
4435.997940
4419.215131
4431.139008
4420.428922
4451.500834
4394.402336
4463.205289
4380.580984
4447.453125
4401.572448
4466.816708
4443.050658
4429.854162
4395.668799
4413.491400
4410.847257
4475.953464
4458.337583
4434.994571
4387.824676
4424.535331
4415.192919
4402.969779
4467.880109
4406.265170
4388.941172
4419.988916
4421.708236
4438.426072
4403.453778
4424.716833
4439.569475
4444.446566
4417.281812
4420.623615
4451.112524
4456.341066
4388.414277
4471.142558
4390.311683
4508.873174
4405.888873
4434.502829
4389.425293
4410.377613
4471.342863
4447.563169
4434.819180
4437.363720
4380.619966
4434.410226
4417.566550
4408.684753
4435.011541
4422.630744
4464.710166
4417.082632
4486.129623
4445.840027
4368.708982
4491.986072
4442.545585
4436.386068
4423.240881
4437.045193
4436.143242
4400.447461
4441.338626
4433.116044
4437.444588
4474.691976
4368.098974
4462.312417
4432.804803
4418.325298
4446.095065
4475.442952
4377.027151
4463.971492
4397.357337
4452.592949
4439.884934
4438.643536
4385.142903
4422.393565
4439.929168
4425.757865
4419.746839
4417.030133
4469.201516
4441.356645
4423.986171
4394.626117
4417.131166
4434.988773
4434.280453
4439.642431
4412.597877
4437.108749
4422.014331
4454.617918
4377.419848
4426.635336
4469.229023
4427.814206
4424.174599
4436.340590
4429.471718
4357.966141
4431.107785
4396.849439
4443.997576
4386.567864
4448.507804
4488.385508
4465.664401
4436.673206
4449.640612
4447.697117
4449.328820
4372.524188
4442.128702
4398.780064
4413.132647
4446.630222
4417.007628
4422.312255
4431.878810
4412.643988
4442.503566
4433.192528
4446.508409
4397.615042
4444.148469
4436.907855
4403.436841
4447.261173
4419.476286
4419.899053
4444.270349
4474.429597
4467.292978
4426.486178
4437.353322
4422.130835
4436.466033
4460.629101
4447.438005
4434.263949
4451.699099
4440.638670
4390.453858
4427.976455
4457.901353
4448.220049
4436.934699
4443.371233
4442.359813
4424.484757
4434.503253
4440.264215
4437.629701
4431.207522
4433.007169
4447.473717
4429.524005
4410.300333
4432.288184
4430.961689
4443.272061
4413.666840
4427.121762
4368.249814
4382.868772
4421.984588
4466.508340
4419.277957
4440.220687
4400.716559
4462.421222
4416.041154
4420.885609
4398.487027
4451.752170
4420.521474
4415.766525
4457.612338
4394.537141
4409.550549
4408.630310
4431.844078
4417.621306
4415.252220
4431.997458
4432.880399
4436.047900
4438.647847
4424.557145
4437.990329
4428.696244
4432.611201
4421.392340
4435.585581
4452.512667
4391.737118
4448.384933
4406.142392
4476.338307
4436.559128
4420.944745
4424.104948
4414.530406
4454.889110
4416.067650
4402.856200
4430.680668
4407.581962
4439.814806
4433.390608
4401.136383
4453.778708
4430.433430
4432.902537
4413.857309
4423.810886
4441.912335
4410.850623
4428.229905
4436.396629
4425.460630
4455.149915
4433.191363
4472.360137
4432.155340
4433.748961
4438.284782
4394.172493
4432.006188
4448.447525
4390.727866
4454.342021
4445.760921
4426.428996
4442.374430
4440.631169
4426.629660
4462.398715
4445.004321
4412.292241
4460.122579
4408.574279
4416.601172
4416.193232
4451.859230
4423.907289
4414.940908
4460.536889
4393.882707
4443.542710
4457.825984
4389.960249
4378.384660
4393.144058
4426.466909
4525.896469
4410.421288
4441.427842
4426.479931
4395.769192
4457.114665
4390.582768
4395.352530
4431.703940
4446.035980
4430.972710
4407.189814
4433.026524
4417.637142
4390.358984
4423.419377
4421.534166
4445.900547
4444.686686
4449.949314
4403.010601
4420.984392
4442.563347
4427.191353
4492.206707
4411.353670
4412.665653
4459.580727
4412.828420
4436.984034
4460.678097
4344.942796
4414.452575
4404.880076
4435.309104
4426.587324
4430.404948
4410.183640
4466.062091
4428.653930
4387.754758
4417.492611
4448.874310
4413.692316
4427.208186
4443.757004
4437.538508
4423.443251
4440.591651
4409.576396
4421.093806
4452.745825
4432.974657
4423.499314
4419.909381
4407.910372
4462.019438
4406.825508
4368.092362
4453.659353
4423.688141
4388.111106
4432.209579
4419.493495
4440.465743
4433.164736
4424.869246
4425.553194
4423.478744
4375.971142
4394.877897
4426.523274
4428.003824
4468.708866
4421.778190
4458.268806
4464.079484
4413.937621
4435.766961
4447.770675
4420.526557
4429.133137
4421.143268
4401.753736
4442.744558
4437.404908
4445.212766
4434.604676
4445.436799
4437.626779
4443.133555
4420.600117
4402.117670
4460.281654
4475.420760
4423.789675
4415.579204
4439.991826
4412.074907
4432.621768
4397.725057
4373.109237
4456.640127
4424.376875
4457.971267
4392.993371
4406.700820
4458.717295
4457.079238
4422.602240
4426.113309
4444.464379
4432.725030
4413.843040
4449.042260
4461.064987
4414.048271
4421.211986
4416.272177
4439.241154
4427.025972
4464.124095
4392.625775
4402.945105
4408.774768
4444.318282
4379.229127
4434.156048
4437.704926
4452.442881
4427.315337
4438.786861
4423.036258
4467.295156
4445.477352
4406.238446
4455.504141
4458.593697
4381.682394
4405.145116
4417.782341
4411.115605
4458.076344
4413.781024
4429.796896
4412.784431
4419.151198
4404.250837
4433.241231
4435.616239
4432.445428
4438.544523
4414.129275
4452.364328
4414.932264
4447.851902
4449.403980
4442.123628
4446.731995
4388.918437
4398.772237
4450.030679
4427.512209
4430.683683
4434.734188
4446.559409
4445.168986
4416.846553
4383.484426
4432.730735
4382.770934
4378.965516
4418.975449
4423.357009
4426.704500
4443.140937
4419.948664
4443.655914
4451.031876
4404.826758
4447.712557
4419.080770
4430.983707
4438.474878
4440.232764
4417.634780
4455.037589
4381.848443
4429.551967
4442.852657
4432.276729
4390.021941
4418.538617
4426.509530
4420.199198
4419.550002
4430.468692
4436.954494
4477.478055
4396.960841
4405.191583
4453.079796
4424.455749
4452.741202
4399.698559
4440.369013
4412.681462
4428.161694
4441.678104
4393.669912
4431.203464
4433.898846
4428.546109
4440.756093
4438.753179
4428.119769
4420.564351
4418.192512
4459.728629
4385.519980
4429.203928
4437.330437
4384.545338
4486.973762
4435.499403
4453.199397
4428.599221
4423.695710
4442.886300
4441.586440
4468.568315
4410.908822
4488.779390
4500.698775
4437.512770
4440.048630
4403.882168
4439.369059
4452.185104
4422.657911
4421.862470
4447.771825
4444.623648
4441.140615
4430.999805
4426.506798
4403.326674
4414.955970
4453.085748
4433.352995
4467.236174
4463.728443
4456.790933
4462.390626
4437.462416
4434.346149
4398.747372
4428.897342
4422.907811
4418.667099
4431.024870
4448.270055
4416.430337
4447.325050
4412.906796
4446.237031
4438.912939
4444.132075
4473.942119
4395.741444
4444.428188
4413.414123
4426.144898
4430.417431
4415.419851
4401.305314
4430.967809
4431.119883
4455.633008
4416.805746
4445.087011
4436.203468
4404.530501
4402.483446
4440.026749
4419.319474
4439.161388
4439.450757
4426.906851
4436.260178
4425.156779
4440.688833
4442.449754
4472.154838
4427.441301
4477.541592
4447.187523
4450.835981
4490.706504
4440.296527
4430.096116
4412.434939
4404.340663
4429.356101
4430.867419
4435.156525
4421.437193
4444.032840
4441.230215
4437.810990
4434.348688
4432.440743
4439.716875
4404.691356
4426.811846
4430.210591
4394.797967
4394.017794
4460.069992
4464.344894
4399.811416
4480.223076
4425.204832
4417.342207
4429.169610
4475.166423
4437.027890
4421.300626
4364.125830
4438.037423
4384.435625
4452.850735
4477.754008
4426.661102
4489.325304
4456.411051
4446.048970
4426.745891
4440.050577
4429.088522
4407.498473
4433.104541
4440.765838
4425.449178
4459.901613
4403.547301
4427.954397
4409.326848
4449.087128
4432.994017
4445.266311
4368.888488
4433.201618
4436.117300
4429.100710
4415.591811
4432.434327
4436.160627
4448.867450
4424.020677
4450.322874
4414.287003
4413.440545
4345.996552
4453.969918
4422.506731
4444.118763
4399.599843
4417.851576
4446.981017
4422.673591
4436.063168
4435.874858
4434.048750
4414.938026
4434.359686
4422.639863
4413.872540
4462.274702
4415.390438
4440.350949
4460.649995
4445.749269
4414.498445
4417.171703
4448.528540
4433.427693
4466.966082
4376.683257
4453.356799
4431.831143
4439.486531
4428.336815
4447.136847
4443.500668
4374.130905
4368.365645
4441.942061
4379.086503
4419.126665
4393.940565
4417.966992
4431.728246
4420.369708
4425.977808
4421.567314
4433.951051
4427.345445
4430.208818
4418.498480
4442.496328
4432.240627
4398.296203
4390.367011
4419.809622
4443.530124
4431.968384
4430.960890
4454.674000
4421.364463
4438.906576
4396.305005
4351.544780
4394.042590
4420.859777
4371.490188
4366.804132
4448.551691
4425.135798
4454.165948
4448.634066
4428.814064
4415.767393
4432.624348
4429.116249
4436.846827
4445.874876
4420.942338
4428.425946
4430.462092
4430.726110
4430.888964
4430.740479
4430.217434
4429.824557
4429.374252
4429.515949
4430.241401
4431.399600
4431.868015
4431.592167
4431.077468
4430.491477
4429.167863
4430.045411
4428.949346
4428.779143
4429.483731
4430.636016
4432.141117
4433.277209
4433.634803
4432.065065
4429.631964
4428.282047
4428.835760
4430.269403
4430.831472
4429.459110
4430.101374
4431.361626
4431.860812
4431.476930
4430.113706
4428.740134
4427.234528
4427.122019
4428.592542
4431.898522
4433.277733
4432.128796
4430.513105
4428.852413
4429.925249
4429.780041
4428.615295
4428.133855
4428.681125
4430.184845
4431.712020
4433.611957
4433.643083
4432.295982
4428.742682
4426.819556
4427.062398
4428.608365
4429.321455
4429.825303
4429.765101
4431.390294
4431.770547
4431.429643
4429.872748
4428.410578
4426.393231
4426.463249
4427.678668
4431.282787
4433.014417
4432.398776
4429.437770
4430.139286
4429.762858
4429.468996
4428.756258
4427.310792
4428.914013
4429.244553
4431.931496
4432.603367
4434.070576
4430.903761
4429.430847
4425.417947
4428.062700
4428.266944
4429.576025
4429.662046
4429.578748
4431.332082
4431.545208
4431.287947
4429.519415
4428.138641
4425.975932
4426.054956
4427.401025
4430.479217
4432.831650
4431.765237
4428.818126
4428.664642
4429.501192
4429.521292
4428.387446
4427.475483
4428.164226
4429.583046
4430.989150
4432.958559
4433.020119
4431.237884
4428.460182
4425.391477
4426.630735
4427.920936
4429.141573
4428.971109
4429.848240
4430.678718
4431.630188
4431.010930
4429.283797
4427.897744
4425.622917
4425.878625
4426.881326
4430.203965
4432.509427
4431.726720
4429.450589
4429.287071
4429.321134
4429.403054
4428.220583
4427.287570
4427.957860
4429.348475
4430.753135
4432.614926
4432.674589
4430.885922
4428.203585
4425.090593
4426.879830
4427.662443
4430.412892
4429.018783
4429.519997
4430.834983
4431.361733
4430.743307
4429.248640
4427.268661
4425.752675
4425.549896
4426.607502
4429.721470
4432.143279
4430.660967
4427.726613
4424.018588
4429.155275
4429.325578
4428.067758
4426.945468
4427.924260
4428.799660
4430.914213
4432.061187
4432.715590
4430.576359
4427.882670
4424.853860
4425.390961
4426.452498
4427.030599
4428.832399
4429.295406
4430.750191
4431.154757
4430.588067
4429.011178
4427.205139
4425.478528
4425.688798
4426.274880
4429.621972
4432.374440
4431.190021
4428.117500
4429.717031
4436.709683
4456.819597
4393.541918
4469.306546
4451.728064
4454.131567
4432.315628
4421.593834
4404.741489
4461.890602
4465.407902
4412.535260
4451.012704
4467.605264
4432.192188
4416.749629
4428.912288
4429.186515
4428.072028
4426.492829
4427.910558
4428.541326
4430.687597
4432.061497
4432.222468
4430.571980
4428.332250
4424.299887
4427.701701
4428.213614
4429.206475
4443.537857
4418.378253
4439.942254
4429.147117
4420.478745
4441.804725
4433.652160
4444.158461
4392.085383
4388.214938
4431.965725
4429.607002
4421.289227
4385.531867
4464.815626
4406.070659
4428.437267
4429.269693
4430.421572
4431.067283
4430.492656
4428.643146
4427.455607
4424.911687
4426.331647
4425.718096
4429.659291
4432.715150
4431.168073
4428.672761
4430.481637
4441.013738
4448.388509
4441.253606
4448.465605
4407.742477
4451.182791
4408.957189
4423.922653
4410.846173
4439.391734
4460.901435
4414.893565
4439.588691
4446.728860
4414.790124
4416.819288
4428.748729
4429.267340
4427.754348
4426.604146
4427.402478
4428.985458
4429.989712
4432.473727
4431.129937
4431.070217
4428.055533
4424.241428
4427.620827
4426.791509
4430.029452
4449.935852
4429.295626
4410.249112
4402.497309
4390.173183
4448.804159
4433.997528
4415.645469
4435.802739
4433.378853
4411.182840
4432.163981
4379.495247
4411.993342
4435.817857
4453.592422
4428.363354
4429.411363
4430.037953
4431.190250
4430.236278
4428.841334
4427.043516
4425.311126
4425.924225
4425.779663
4428.899369
4433.138722
4429.885905
4428.921947
4428.355677
4458.148463
4423.655452
4429.743170
4458.945590
4429.341127
4437.608546
4435.173182
4468.522692
4427.786412
4447.288063
4414.825968
4438.187315
4434.864467
4419.860258
4433.443450
4420.228710
4428.388366
4429.267403
4427.551956
4426.738152
4427.058512
4429.202533
4429.802723
4432.307830
4430.940657
4430.788376
4428.086146
4424.429639
4426.813015
4428.045184
4426.248322
4435.302460
4420.683236
4424.086959
4382.382536
4481.867917
4400.117666
4422.754703
4452.094606
4460.527100
4384.369542
4437.742553
4426.255617
4403.339433
4417.526006
4453.291764
4418.337579
4428.449844
4429.520747
4429.760962
4431.293516
4430.003680
4428.995674
4426.626899
4425.882420
4425.660052
4426.131881
4428.203744
4433.463876
4429.238327
4429.113249
4428.948866
4429.518324
4449.244397
4452.381923
4454.625135
4338.971228
4437.576678
4428.204374
4426.675659
4414.406642
4442.678770
4434.286105
4476.482423
4464.743709
4413.976139
4474.564655
4418.051333
4428.235652
4429.176781
4427.456201
4426.630567
4426.875714
4429.025168
4429.627700
4432.287595
4430.690046
4430.882980
4428.274345
4424.486882
4427.483415
4427.417878
4426.556887
4417.887813
4408.245645
4374.048876
4383.936623
4394.416090
4482.118958
4424.905543
4422.527734
4417.346810
4426.867731
4440.976471
4398.649299
4470.295444
4365.020933
4439.354901
4417.427474
4428.324248
4429.197325
4429.908335
4430.829514
4430.250306
4428.385756
4427.037351
4425.544939
4426.740336
4425.371357
4428.834653
4433.238198
4430.266460
4429.218483
4427.920792
4437.091168
4447.083205
4393.914796
4402.137793
4442.776094
4434.925578
4429.071628
4419.759025
4493.895369
4455.737299
4387.446621
4410.326534
4468.006322
4408.981592
4421.100144
4403.759903
4428.257719
4428.822636
4427.721072
4426.184194
4427.192475
4428.376467
4429.940834
4431.767286
4430.936244
4430.660746
4428.186524
4424.700290
4427.416388
4427.118609
4429.068074
4446.202776
4433.746356
4432.920628
4451.084341
4370.956454
4418.529692
4425.374143
4436.988662
4385.585249
4436.350330
4448.381568
4497.298868
4407.774241
4404.858596
4425.582365
4439.698662
4428.195708
4429.098404
4429.757848
4430.717235
4430.172085
4428.319028
4426.844954
4426.066183
4426.712138
4425.232430
4428.427064
4433.024529
4430.408321
4428.933237
4427.349285
4425.436086
4446.079545
4402.918818
4452.576400
4451.951177
4431.764627
4452.048738
4476.589050
4429.442048
4446.845568
4419.321978
4436.903352
4475.027873
4403.270080
4462.738548
4408.136133
4428.143479
4429.027382
4427.310601
4426.747230
4426.408704
4428.963322
4429.230527
4431.835415
4430.615082
4430.486081
4427.565853
4424.507607
4425.741245
4426.466248
4424.812147
4426.874532
4477.668980
4445.323907
4372.240950
4437.342288
4419.739659
4438.542469
4420.695890
4472.716759
4424.874348
4436.876029
4436.071468
4427.284836
4414.151578
4414.302887
4422.096370
4428.011671
4429.387998
4429.181703
4430.981997
4430.190034
4428.196687
4426.838614
4426.562665
4426.273627
4425.398475
4427.457746
4432.727779
4428.653754
4427.616209
4425.592910
4426.663521
4423.238992
4436.035386
4418.011145
4396.586387
4440.445174
4446.999644
4432.093385
4429.721398
4425.074667
4455.509329
4410.033276
4397.645865
4384.723807
4472.852567
4442.734830
4427.898890
4429.119964
4427.231182
4426.911611
4426.154936
4429.328616
4428.817968
4431.952427
4430.140405
4430.342518
4427.208647
4424.537840
4425.487018
4425.942939
4426.367762
4405.131698
4449.602941
4404.237468
4423.591907
4447.696726
4433.142298
4425.483870
4429.049515
4413.223513
4449.055184
4411.513293
4415.464981
4426.064579
4395.676365
4391.079389
4450.226974
4427.847295
4429.515528
4428.890988
4431.350652
4429.743792
4428.378156
4426.501075
4427.079525
4426.155480
4425.661935
4427.108528
4432.363878
4428.719595
4427.670740
4425.316171
4433.299716
4424.200394
4411.304405
4454.214683
4388.923181
4404.529841
4421.667642
4450.804861
4435.908206
4422.902807
4435.463526
4406.779697
4440.893098
4448.708502
4414.774247
4399.013285
4428.075874
4429.005218
4427.467354
4426.568762
4426.595087
4428.547781
4429.083242
4432.119914
4429.931182
4430.437300
4427.392406
4425.123949
4425.291127
4425.819452
4424.559896
4426.497936
4418.080809
4424.359618
4418.207263
4405.319072
4442.161602
4419.927089
4426.985743
4419.366410
4448.636320
4513.072987
4442.890538
4427.496788
4413.791715
4460.557655
4427.368313
4428.051894
4429.148561
4429.363590
4430.961044
4429.728820
4428.289614
4426.790477
4426.876512
4427.268959
4425.438620
4426.911019
4432.518053
4429.515787
4427.570720
4426.554676
4433.906532
4412.183401
4440.817425
4438.412481
4392.464638
4430.301824
4455.066598
4410.097905
4435.369608
4414.423157
4463.445329
4403.322524
4448.310528
4455.121820
4392.893053
4419.924062
4428.401016
4429.066925
4427.505579
4426.678652
4426.463700
4428.295714
4429.296786
4431.838003
4430.349284
4429.870659
4428.121132
4424.682114
4426.160394
4425.171210
4425.357204
4447.739923
4450.549599
4440.180101
4454.168224
4385.892651
4416.031321
4444.771001
4369.579202
4465.285219
4439.514722
4442.540843
4409.105922
4465.044774
4490.673926
4394.743953
4414.474228
4428.164230
4428.831633
4429.543401
4430.402308
4430.568009
4427.370588
4427.641664
4426.644630
4427.906561
4424.849847
4427.117784
4432.933684
4428.458438
4426.779413
4426.450077
4443.087712
4440.942633
4415.667279
4465.297723
4386.735924
4435.632460
4433.675616
4438.761193
4462.620458
4470.404651
4473.969960
4410.986605
4377.185500
4479.321783
4366.093948
4423.431417
4428.229543
4429.383625
4427.421566
4427.125942
4425.833111
4429.453219
4428.709685
4431.885647
4430.905477
4430.341856
4427.271655
4425.456872
4424.980176
4424.478739
4424.703812
4423.620680
4432.446860
4407.684318
4385.789100
4426.000642
4443.629939
4441.253863
4410.374095
4378.562098
4450.770981
4394.063173
4452.050798
4448.989616
4405.740327
4398.030633
4443.281432
4428.072776
4429.471877
4428.370889
4431.716030
4430.154613
4428.392832
4427.299397
4428.676412
4426.600322
4425.164976
4428.050570
4431.527866
4428.336619
4427.787024
4425.440419
4425.330784
4409.972099
4432.062907
4431.945913
4455.783924
4424.049557
4433.482213
4506.022852
4425.868077
4402.167020
4422.490012
4391.906542
4483.711920
4414.140575
4562.463210
4412.481153
4428.189698
4429.233654
4428.085215
4426.832604
4426.572555
4429.061264
4428.528236
4432.360991
4430.661689
4429.777379
4427.230856
4426.897816
4425.457286
4426.104114
4422.822258
4440.312318
4420.706609
4437.069352
4436.515298
4466.362043
4464.426671
4439.821104
4452.581729
4492.085071
4439.554861
4424.513516
4443.069027
4448.997583
4432.934416
4273.886842
4428.371817
4428.482557
4429.686761
4428.459012
4431.771886
4429.638561
4428.479744
4426.469400
4429.057881
4425.809558
4426.559646
4427.642379
4430.977236
4427.648779
4427.506062
4424.195301
4423.028806
4395.721649
4385.424042
4399.971052
4447.346526
4412.954065
4435.962929
4440.820241
4451.870218
4414.227552
4400.777887
4449.580402
4441.488013
4436.628400
4382.906418
4404.157016