# vtk DataFile Version 2.0
mfree iwf
ASCII

DATASET UNSTRUCTURED_GRID
POINTS 11778 float
-0.000000 0.000445 0.000000
0.000000 0.000450 0.000000
-0.000000 0.000455 0.000000
-0.000000 0.000460 0.000000
-0.000000 0.000465 0.000000
0.000000 0.000470 0.000000
0.000000 0.000475 0.000000
-0.000000 0.000480 0.000000
0.000000 0.000485 0.000000
0.000000 0.000490 0.000000
-0.000000 0.000496 0.000000
0.000002 0.000500 0.000000
0.001141 0.001020 0.000000
0.001150 0.001019 0.000000
0.001194 0.001001 0.000000
0.001199 0.000998 0.000000
0.001199 0.000998 0.000000
0.001206 0.000996 0.000000
0.001212 0.000992 0.000000
0.001208 0.000994 0.000000
0.001221 0.000988 0.000000
0.001244 0.000975 0.000000
0.001249 0.000970 0.000000
0.001252 0.000966 0.000000
0.001255 0.000963 0.000000
0.001259 0.000959 0.000000
0.001262 0.000955 0.000000
0.001265 0.000951 0.000000
0.001267 0.000948 0.000000
0.001272 0.000943 0.000000
0.001276 0.000939 0.000000
0.001294 0.000926 0.000000
0.000005 0.000445 0.000000
0.000005 0.000450 0.000000
0.000005 0.000455 0.000000
0.000005 0.000460 0.000000
0.000005 0.000465 0.000000
0.000005 0.000470 0.000000
0.000005 0.000475 0.000000
0.000005 0.000480 0.000000
0.000005 0.000485 0.000000
0.000006 0.000490 0.000000
0.000003 0.000496 0.000000
0.000006 0.000499 0.000000
0.001190 0.001002 0.000000
0.001193 0.000993 0.000000
0.001226 0.000983 0.000000
0.001232 0.000980 0.000000
0.001236 0.000977 0.000000
0.001239 0.000974 0.000000
0.001241 0.000973 0.000000
0.001244 0.000969 0.000000
0.001246 0.000965 0.000000
0.001251 0.000961 0.000000
0.001256 0.000955 0.000000
0.001260 0.000951 0.000000
0.001263 0.000945 0.000000
0.001270 0.000939 0.000000
0.001272 0.000935 0.000000
0.001276 0.000931 0.000000
0.001286 0.000927 0.000000
0.001288 0.000926 0.000000
0.001283 0.000929 0.000000
0.001292 0.000924 0.000000
0.000010 0.000445 0.000000
0.000010 0.000450 0.000000
0.000010 0.000455 0.000000
0.000010 0.000460 0.000000
0.000010 0.000465 0.000000
0.000010 0.000469 0.000000
0.000010 0.000475 0.000000
0.000011 0.000479 0.000000
0.000009 0.000486 0.000000
0.000012 0.000489 0.000000
0.000008 0.000497 0.000000
0.000011 0.000498 0.000000
0.001188 0.000998 0.000000
0.001196 0.000991 0.000000
0.001212 0.000987 0.000000
0.001219 0.000984 0.000000
0.001223 0.000982 0.000000
0.001228 0.000980 0.000000
0.001219 0.000978 0.000000
0.001226 0.000974 0.000000
0.001231 0.000971 0.000000
0.001237 0.000968 0.000000
0.001245 0.000962 0.000000
0.001250 0.000957 0.000000
0.001249 0.000950 0.000000
0.001254 0.000948 0.000000
0.001257 0.000947 0.000000
0.001266 0.000940 0.000000
0.001278 0.000929 0.000000
0.001280 0.000928 0.000000
0.001285 0.000921 0.000000
0.001286 0.000916 0.000000
0.000015 0.000445 0.000000
0.000016 0.000450 0.000000
0.000014 0.000456 0.000000
0.000017 0.000460 0.000000
0.000014 0.000469 0.000000
0.000015 0.000465 0.000000
0.000014 0.000476 0.000000
0.000017 0.000480 0.000000
0.000014 0.000485 0.000000
0.000016 0.000489 0.000000
0.000014 0.000495 0.000000
0.000016 0.000497 0.000000
0.000025 0.000500 0.000000
0.001200 0.000991 0.000000
0.001214 0.000985 0.000000
0.001209 0.000983 0.000000
0.001222 0.000976 0.000000
0.001232 0.000977 0.000000
0.001232 0.000968 0.000000
0.001240 0.000963 0.000000
0.001235 0.000962 0.000000
0.001241 0.000959 0.000000
0.001248 0.000945 0.000000
0.001252 0.000954 0.000000
0.001258 0.000940 0.000000
0.001263 0.000941 0.000000
0.001262 0.000935 0.000000
0.001267 0.000934 0.000000
0.001270 0.000929 0.000000
0.001274 0.000926 0.000000
0.001277 0.000922 0.000000
0.001284 0.000913 0.000000
0.000019 0.000445 0.000000
0.000021 0.000450 0.000000
0.000018 0.000455 0.000000
0.000022 0.000459 0.000000
0.000019 0.000469 0.000000
0.000024 0.000467 0.000000
0.000018 0.000474 0.000000
0.000022 0.000479 0.000000
0.000019 0.000486 0.000000
0.000021 0.000491 0.000000
0.000020 0.000497 0.000000
0.000022 0.000499 0.000000
0.000039 0.000500 0.000000
0.001195 0.000980 0.000000
0.001203 0.000985 0.000000
0.001210 0.000978 0.000000
0.001215 0.000981 0.000000
0.001225 0.000970 0.000000
0.001223 0.000965 0.000000
0.001236 0.000958 0.000000
0.001227 0.000963 0.000000
0.001239 0.000953 0.000000
0.001238 0.000944 0.000000
0.001243 0.000940 0.000000
0.001248 0.000939 0.000000
0.001257 0.000934 0.000000
0.001261 0.000925 0.000000
0.001267 0.000925 0.000000
0.001270 0.000922 0.000000
0.001278 0.000916 0.000000
0.001281 0.000918 0.000000
0.001280 0.000910 0.000000
0.000024 0.000445 0.000000
0.000026 0.000450 0.000000
0.000024 0.000455 0.000000
0.000026 0.000461 0.000000
0.000021 0.000464 0.000000
0.000025 0.000472 0.000000
0.000023 0.000476 0.000000
0.000027 0.000481 0.000000
0.000023 0.000485 0.000000
0.000026 0.000488 0.000000
0.000026 0.000492 0.000000
0.000027 0.000500 0.000000
0.001170 0.001012 0.000000
0.001202 0.000988 0.000000
0.001207 0.000987 0.000000
0.001220 0.000971 0.000000
0.001215 0.000974 0.000000
0.001232 0.000965 0.000000
0.001229 0.000958 0.000000
0.001220 0.000966 0.000000
0.001226 0.000954 0.000000
0.001244 0.000955 0.000000
0.001242 0.000948 0.000000
0.001244 0.000951 0.000000
0.001253 0.000943 0.000000
0.001254 0.000938 0.000000
0.001265 0.000929 0.000000
0.001261 0.000930 0.000000
0.001273 0.000918 0.000000
0.001265 0.000919 0.000000
0.001274 0.000913 0.000000
0.001276 0.000907 0.000000
0.000030 0.000445 0.000000
0.000031 0.000450 0.000000
0.000029 0.000455 0.000000
0.000031 0.000459 0.000000
0.000031 0.000464 0.000000
0.000028 0.000469 0.000000
0.000032 0.000472 0.000000
0.000030 0.000477 0.000000
0.000030 0.000486 0.000000
0.000031 0.000492 0.000000
0.000033 0.000497 0.000000
0.000030 0.000499 0.000000
0.000048 0.000500 0.000000
0.001192 0.000987 0.000000
0.001204 0.000975 0.000000
0.001212 0.000972 0.000000
0.001208 0.000973 0.000000
0.001215 0.000968 0.000000
0.001221 0.000958 0.000000
0.001233 0.000946 0.000000
0.001233 0.000954 0.000000
0.001236 0.000949 0.000000
0.001246 0.000944 0.000000
0.001246 0.000930 0.000000
0.001251 0.000935 0.000000
0.001253 0.000930 0.000000
0.001256 0.000921 0.000000
0.001257 0.000927 0.000000
0.001263 0.000916 0.000000
0.001268 0.000915 0.000000
0.001272 0.000910 0.000000
0.001273 0.000904 0.000000
0.000035 0.000445 0.000000
0.000035 0.000450 0.000000
0.000034 0.000457 0.000000
0.000039 0.000454 0.000000
0.000035 0.000467 0.000000
0.000037 0.000472 0.000000
0.000032 0.000479 0.000000
0.000041 0.000479 0.000000
0.000035 0.000483 0.000000
0.000034 0.000488 0.000000
0.000037 0.000491 0.000000
0.000036 0.000498 0.000000
0.001129 0.001021 0.000000
0.001166 0.001013 0.000000
0.001200 0.000979 0.000000
0.001204 0.000969 0.000000
0.001217 0.000960 0.000000
0.001207 0.000959 0.000000
0.001225 0.000959 0.000000
0.001222 0.000952 0.000000
0.001230 0.000951 0.000000
0.001221 0.000944 0.000000
0.001229 0.000936 0.000000
0.001243 0.000931 0.000000
0.001244 0.000935 0.000000
0.001248 0.000926 0.000000
0.001260 0.000920 0.000000
0.001251 0.000910 0.000000
0.001263 0.000910 0.000000
0.001266 0.000910 0.000000
0.001269 0.000906 0.000000
0.001269 0.000900 0.000000
0.000040 0.000445 0.000000
0.000041 0.000450 0.000000
0.000036 0.000462 0.000000
0.000040 0.000458 0.000000
0.000042 0.000463 0.000000
0.000039 0.000468 0.000000
0.000042 0.000473 0.000000
0.000037 0.000477 0.000000
0.000041 0.000488 0.000000
0.000042 0.000491 0.000000
0.000041 0.000497 0.000000
0.000044 0.000498 0.000000
0.000978 0.000980 0.000000
0.001189 0.000995 0.000000
0.001191 0.000983 0.000000
0.001199 0.000966 0.000000
0.001212 0.000964 0.000000
0.001216 0.000955 0.000000
0.001213 0.000961 0.000000
0.001227 0.000947 0.000000
0.001233 0.000940 0.000000
0.001238 0.000940 0.000000
0.001229 0.000942 0.000000
0.001231 0.000926 0.000000
0.001242 0.000925 0.000000
0.001247 0.000920 0.000000
0.001252 0.000925 0.000000
0.001252 0.000919 0.000000
0.001257 0.000915 0.000000
0.001259 0.000908 0.000000
0.001265 0.000903 0.000000
0.001266 0.000897 0.000000
0.000044 0.000445 0.000000
0.000046 0.000450 0.000000
0.000044 0.000455 0.000000
0.000045 0.000461 0.000000
0.000044 0.000467 0.000000
0.000046 0.000473 0.000000
0.000046 0.000479 0.000000
0.000040 0.000483 0.000000
0.000051 0.000485 0.000000
0.000045 0.000483 0.000000
0.000048 0.000493 0.000000
0.000050 0.000498 0.000000
0.000984 0.000984 0.000000
0.001185 0.001004 0.000000
0.001204 0.000979 0.000000
0.001208 0.000966 0.000000
0.001204 0.000964 0.000000
0.001216 0.000951 0.000000
0.001217 0.000947 0.000000
0.001222 0.000947 0.000000
0.001223 0.000936 0.000000
0.001233 0.000933 0.000000
0.001238 0.000936 0.000000
0.001243 0.000922 0.000000
0.001237 0.000924 0.000000
0.001244 0.000917 0.000000
0.001251 0.000915 0.000000
0.001256 0.000911 0.000000
0.001254 0.000905 0.000000
0.001259 0.000903 0.000000
0.001261 0.000900 0.000000
0.001262 0.000894 0.000000
0.000049 0.000445 0.000000
0.000052 0.000450 0.000000
0.000049 0.000454 0.000000
0.000053 0.000455 0.000000
0.000048 0.000465 0.000000
0.000049 0.000471 0.000000
0.000053 0.000468 0.000000
0.000051 0.000477 0.000000
0.000047 0.000488 0.000000
0.000052 0.000491 0.000000
0.000057 0.000492 0.000000
0.000053 0.000498 0.000000
0.001072 0.001018 0.000000
0.001176 0.001001 0.000000
0.001187 0.000991 0.000000
0.001199 0.000969 0.000000
0.001205 0.000958 0.000000
0.001211 0.000954 0.000000
0.001206 0.000950 0.000000
0.001211 0.000949 0.000000
0.001218 0.000938 0.000000
0.001225 0.000941 0.000000
0.001221 0.000934 0.000000
0.001233 0.000931 0.000000
0.001231 0.000919 0.000000
0.001238 0.000929 0.000000
0.001241 0.000914 0.000000
0.001244 0.000906 0.000000
0.001247 0.000911 0.000000
0.001253 0.000901 0.000000
0.001257 0.000896 0.000000
0.001258 0.000891 0.000000
0.000054 0.000445 0.000000
0.000058 0.000450 0.000000
0.000054 0.000460 0.000000
0.000051 0.000461 0.000000
0.000061 0.000466 0.000000
0.000054 0.000473 0.000000
0.000058 0.000476 0.000000
0.000056 0.000480 0.000000
0.000052 0.000483 0.000000
0.000057 0.000486 0.000000
0.000056 0.000497 0.000000
0.000059 0.000496 0.000000
0.001095 0.001019 0.000000
0.001185 0.001005 0.000000
[...]
POINT_DATA 11778
SCALARS density float 1
LOOKUP_TABLE default
4428.747696
4432.162137
4424.967167
4427.760304
4432.952361
4427.364768
4433.338413
4428.494018
4430.942216
4419.969660
4430.229421
4405.736812
4431.230967
4421.069451
4415.211128
4435.287331
4433.553947
4430.583716
4445.812840
4442.241842
4429.787212
4422.037382
4404.076106
4434.368919
4425.694205
4422.453021
4452.115267
4420.514067
4417.503697
4448.164055
4424.026547
4408.953416
4430.233198
4430.292514
4428.712463
4428.113815
4429.695709
4421.981222
4431.000732
4424.519505
4421.080426
4431.540768
4449.435560
4409.099800
4412.258948
4426.674256
4420.402907
4409.217356
4426.483076
4428.384797
4438.702360
4462.339932
4443.555011
4431.585921
4410.875335
4392.525703
4435.274238
4396.604213
4433.631492
4458.392874
4419.043677
4439.822623
4402.929146
4409.546758
4421.572297
4426.734858
4439.949476
4421.953732
4431.789213
4421.583271
4451.323719
4394.437371
4466.131304
4384.825723
4447.307968
4401.656225
4461.502327
4436.457664
4427.703377
4397.423590
4420.612592
4412.522869
4463.609296
4444.978336
4444.209799
4384.898651
4410.620455
4431.806482
4391.619289
4451.329434
4450.443413
4397.113566
4426.859781
4434.848576
4446.496353
4408.750540
4424.346694
4438.725263
4438.525734
4415.337209
4424.201933
4448.601120
4458.684927
4387.156279
4470.618172
4384.676036
4508.202148
4404.270180
4436.758172
4411.095650
4416.926175
4461.906057
4439.167826
4433.164651
4431.079905
4392.311785
4440.348757
4432.863367
4438.729970
4442.849751
4400.163471
4469.693136
4427.863661
4471.848550
4427.813329
4357.388770
4490.885214
4442.543678
4437.846899
4424.422557
4439.965877
4443.539164
4398.460089
4452.345098
4429.087390
4444.205633
4472.742143
4375.277309
4467.513442
4435.625312
4418.764226
4439.134750
4457.558085
4394.071357
4460.263285
4403.451572
4453.184876
4436.828011
4428.783418
4393.786784
4424.449952
4421.916173
4423.085771
4428.537352
4412.913732
4465.828289
4458.222302
4416.235256
4387.611675
4420.284545
4434.538060
4434.471663
4436.208833
4400.625788
4435.081480
4417.573153
4461.072028
4368.490219
4431.527629
4471.552739
4412.036667
4426.121656
4436.139526
4433.609701
4378.282033
4449.943924
4393.236373
4444.318756
4391.912399
4438.350181
4476.362124
4447.088682
4428.023300
4454.883284
4429.688498
4464.665302
4394.554437
4423.753729
4409.268043
4420.408669
4475.967916
4414.014921
4421.934992
4431.306900
4413.993577
4447.560177
4441.693986
4439.174135
4388.812874
4448.489082
4446.955825
4414.571206
4452.394910
4419.974188
4422.384092
4442.490833
4459.071792
4457.305185
4425.874276
4418.610685
4407.529953
4420.486877
4440.501975
4452.214103
4437.964845
4452.315039
4424.458470
4392.117299
4403.065428
4457.923288
4423.712701
4389.489656
4416.721182
4444.931617
4429.249238
4426.869140
4433.367668
4436.830934
4432.857835
4436.492534
4453.163506
4419.980484
4394.968849
4429.797332
4421.420612
4444.297906
4417.976663
4427.902380
4395.078677
4407.711950
4428.330564
4447.153874
4454.170565
4394.713698
4412.681956
4433.847825
4397.067996
4465.071400
4407.223765
4438.167391
4449.019177
4435.181233
4447.593216
4455.568264
4404.870217
4412.554420
4433.754989
4422.461495
4397.039497
4446.670163
4437.956629
4441.656162
4428.000944
4421.438597
4443.496927
4430.287469
4430.504714
4423.333463
4436.295742
4455.356023
4404.622228
4448.658498
4438.796622
4471.060496
4428.795248
4416.659755
4412.409256
4436.015387
4456.619302
4404.354616
4427.502251
4435.959406
4434.700984
4420.583988
4424.304596
4386.251285
4441.876403
4436.098935
4426.592759
4423.398104
4408.620727
4442.218553
4402.322381
4448.459819
4430.593187
4443.444241
4452.235311
4422.642533
4475.377486
4430.358680
4427.285661
4441.987068
4411.763891
4431.430650
4427.263387
4432.529827
4447.490613
4449.258023
4452.877473
4454.761298
4430.786811
4406.760247
4456.070252
4451.883746
4434.833215
4445.621531
4447.102676
4417.546407
4439.048178
4433.482809
4422.210719
4423.371225
4452.479246
4408.042887
4427.310041
4443.179366
4417.182486
4381.143072
4389.476174
4415.268458
4535.788616
4406.027608
4436.367867
4423.996077
4388.780228
4458.672571
4447.033349
4377.073669
4464.658437
4427.985245
4393.415755
4421.464386
4455.879637
4450.427615
4387.710562
4385.002533
4431.332015
4456.415606
4402.207805
4432.600223
4412.327995
4428.954293
4443.127916
4417.393064
4436.827303
4421.934580
4417.472957
4440.761528
4407.749777
4451.621148
4469.918988
4357.154056
4414.404875
4399.278567
4432.578618
4429.437481
4421.388222
4394.639803
4453.631622
4425.368501
4394.937594
4428.964975
4427.419672
4389.497261
4446.626357
4437.916217
4459.172687
4416.298224
4456.216034
4404.472052
4408.833432
4443.997884
4433.489377
4427.506579
4431.497203
4434.679208
4433.080873
4405.172917
4423.523965
4450.078019
4425.768448
4419.367183
4446.379806
4410.969588
4444.053322
4440.637626
4417.942575
4423.615272
4414.176021
4380.905169
4397.494447
4425.386581
4440.440661
4438.901924
4457.089040
4456.892618
4454.526016
4402.101467
4409.707089
4440.704268
4436.023605
4398.211113
4421.636059
4432.934053
4430.161035
4433.343519
4437.948751
4439.232617
4449.424094
4402.941264
4433.958672
4419.629486
4400.003306
4419.797918
4453.350892
4404.683436
4420.996551
4451.057251
4408.757387
4431.039259
4418.806398
4384.551877
4435.933640
4383.307629
4445.296438
4411.153453
4420.676575
4444.949932
4463.487671
4444.189891
4411.042173
4460.745190
4430.434023
4423.573391
4432.807281
4451.699067
4420.486367
4430.380373
4411.352176
4414.114765
4443.672540
4452.584437
4431.720857
4426.395364
4433.481209
4409.478541
4391.074729
4437.998696
4443.453485
4448.125408
4431.974168
4441.753385
4424.102658
4465.490508
4443.195474
4467.178799
4454.789578
4449.041691
4387.535148
4414.579993
4424.250682
4439.414287
4464.754280
4395.525629
4445.777611
4410.313083
4432.825711
4395.746427
4433.194602
4433.389368
4443.819502
4403.446228
4435.130328
4406.019482
4419.944672
4423.754066
4466.451007
4422.816753
4451.340816
4400.704771
4384.366490
4449.013031
4428.177090
4429.032849
4431.718016
4450.655962
4443.515415
4410.068969
4410.657561
4411.116971
4393.963023
4400.806706
4439.424691
4435.776166
4415.860811
4445.502476
4409.354739
4440.419321
4441.190108
4429.360928
4440.698669
4419.233318
4429.245311
4444.138426
4438.257437
4430.728473
4446.574523
4399.379576
4408.048398
4451.488201
4434.478392
4407.403682
4422.557530
4426.894220
4420.052453
4421.757617
4428.027446
4434.054461
4471.800338
4445.040260
4411.307557
4451.730574
4403.099403
4462.586592
4382.746668
4428.043263
4411.465083
4403.903977
4417.677666
4443.362765
4401.252349
4430.428123
4426.482384
4446.730930
4441.488428
4439.989664
4441.548892
4431.710544
4424.078059
4423.177022
4420.746050
4434.496319
4387.805257
4492.863382
4436.314227
4439.693518
4430.376828
4429.277813
4440.900921
4432.212020
4465.150195
4414.832096
4486.256993
4502.458113
4439.028335
4452.049151
4395.144549
4451.916979
4438.293729
4437.817029
4409.123939
4437.527790
4450.854169
4443.018664
4417.454051
4435.140641
4416.196249
4433.706694
4412.273817
4417.114937
4456.794131
4432.647992
4444.105579
4463.997611
4450.488377
4421.130777
4399.746409
4433.251794
4421.646875
4428.448124
4434.696189
4446.198684
4421.125112
4438.311128
4428.275516
4439.813171
4444.605129
4448.295618
4482.969283
4398.789089
4438.592668
4431.133708
4442.703902
4430.504282
4402.090173
4413.624645
4423.489381
4427.097630
4458.965651
4407.998280
4453.215977
4439.982400
4411.972416
4413.252864
4451.943372
4390.847688
4423.376492
4445.667944
4432.125625
4432.569093
4412.296686
4441.685465
4441.274992
4471.807197
4425.643917
4437.302641
4417.806056
4450.604481
4484.867159
4423.274357
4442.687748
4426.951159
4404.603278
4415.835946
4427.938330
4438.525909
4423.224962
4451.150587
4441.121255
4432.191008
4430.363113
4438.685866
4446.620678
4406.210425
4440.663218
4432.854378
4427.547566
4416.236646
4442.235069
4457.748147
4403.928550
4498.456432
4421.899292
4429.536258
4418.955998
4471.265159
4439.764140
4417.582636
4357.396581
4431.235506
4392.300682
4470.209325
4488.993005
4421.934681
4484.531657
4461.467929
4408.701716
4421.365449
4448.622523
4434.154419
4412.059679
4433.742651
4434.956355
4421.441131
4433.065331
4444.655231
4436.214666
4432.726286
4440.439207
4438.434887
4458.161667
4364.586117
4429.974296
4428.741872
4433.488493
4421.336059
4429.830708
4442.872038
4445.852348
4422.255310
4445.489363
4434.978657
4397.082741
4351.976660
4455.588085
4407.420107
4447.383749
4419.605587
4415.217274
4440.553381
4423.304731
4424.779570
4437.139288
4435.222398
4421.908805
4430.086197
4387.919227
4432.923250
4430.571506
4422.590222
4435.925076
4425.375154
4445.690342
4394.926337
4414.667179
4450.426834
4427.828032
4467.749320
4381.583624
4448.134055
4433.522302
4431.560160
4423.904085
4463.070501
4440.985917
4351.410460
4369.948083
4441.989738
4381.887685
4397.611914
4405.319352
4419.504134
4431.798233
4431.218778
4423.722030
4426.145399
4434.609546
4433.326845
4458.012476
4420.716122
4421.901866
4423.992999
4430.934426
4425.355416
4439.033182
4442.647862
4441.722456
4431.238065
4460.891775
4412.275399
4437.749935
4390.492289
4356.712784
4400.833118
4402.077833
4423.671080
4380.540794
4448.336935
4447.058017
4464.556207
4441.205665
4441.830722
4421.951335
4437.388594
4440.591918
4428.394029
4434.052172
4422.673018
4427.677012
4430.314593
4430.524794
4430.654796
4430.476541
4429.952811
4429.539690
4429.097248
4429.289959
4429.993126
4431.153470
4431.668673
4431.509683
4431.020764
4430.450177
4428.494990
4429.722825
4428.641675
4428.575778
4429.377372
4430.484370
4431.980153
4433.156218
4433.315708
4431.813874
4429.535951
4428.124236
4428.574993
4430.135649
4430.973304
4429.025048
4429.930573
4431.215374
4431.523058
4431.171709
4429.738112
4428.472882
4426.827129
4426.917019
4428.494098
4431.364826
4433.093582
4432.009784
4430.461027
4428.532091
4429.482064
4429.536950
4428.355403
4428.004787
4428.675452
4430.137732
4431.690232
4433.601601
4433.598789
4431.930254
4428.878025
4426.731722
4426.529737
4428.415054
4429.246753
4429.615747
4429.778794
4431.274089
4431.626134
4431.107390
4429.703612
4428.143539
4426.203585
4426.246785
4427.725835
4431.016844
4432.484772
4432.840429
4428.784715
4429.487785
4429.571018
4429.411698
4428.469654
4427.417093
4428.886508
4429.423926
4431.929419
4432.854574
4433.990858
4431.010989
4429.139660
4425.839273
4427.284458
4428.075681
4430.423849
4429.709989
4429.638016
4431.354495
4431.503814
4431.029122
4429.531811
4427.905979
4425.985094
4425.932104
4427.505888
4430.525779
4432.586728
4431.344245
4428.766759
4426.340787
4429.501666
4429.434295
4428.311809
4427.537281
4428.368906
4429.692632
4431.261329
4433.159364
4433.307255
4431.395627
4428.547975
4425.805697
4426.877523
4427.199741
4429.690355
4429.155474
4429.874764
4430.872957
4431.510131
4431.026566
4429.160214
4428.007222
4425.562841
4426.067669
4427.043399
4430.664829
4432.742678
4432.654760
4429.626343
4431.381224
4429.430211
4429.368671
4428.205533
4427.443079
4428.167649
4429.618562
4430.982333
4432.994416
4433.109571
4431.202169
4428.772852
4425.563574
4427.865285
4429.655582
4428.514270
4429.288769
4429.735106
4430.865383
4431.541574
4430.567388
4429.390547
4427.252279
4425.980176
4425.595936
4427.180847
4430.004862
4433.435628
4430.698416
4429.729790
4427.749963
4429.293550
4429.408118
4427.973059
4427.255823
4428.024307
4429.253221
4430.965377
4432.669154
4432.992841
4431.278335
4428.295703
4425.603080
4427.528321
4428.008528
4428.832717
4429.093833
4429.483992
4430.838787
4431.318808
4430.468364
4429.092835
4427.304039
4425.624668
4425.946320
4426.466579
4430.448098
4432.939598
4432.058790
4430.135384
4430.958461
4448.479585
4446.666817
4386.944041
4448.848496
4430.477271
4444.803456
4430.768838
4414.183500
4394.568199
4458.628476
4457.765596
4423.939628
4430.356403
4449.835648
4431.279236
4417.774299
4429.059629
4429.180925
4428.099794
4426.649816
4428.177554
4428.793739
4430.898243
4432.401835
4432.636054
4431.103540
4428.331572
4425.340018
4428.238603
4429.391256
4431.575226
4440.111564
4417.340061
4424.992717
4416.712122
4447.612028
4437.310511
4436.061705
4439.039035
4392.495885
4405.292991
4420.642727
4435.914599
4425.700044
4389.487297
4455.698526
4408.513221
4428.684581
4429.426098
4430.559683
4431.205218
4430.341347
4428.726757
4427.414196
4425.221507
4426.163913
4426.000285
4429.866812
4432.819155
4431.467339
4429.270465
4429.678700
4439.911947
4416.077705
4447.428172
4426.198464
4418.143610
4450.976696
4412.117087
4438.240945
4404.054815
4430.705301
4429.357865
4434.527239
4430.346434
4433.796920
4436.725153
4418.172906
4428.859829
4429.337232
4427.619356
4426.911840
4427.397575
4429.337604
4429.926588
4432.804311
4431.513453
4431.189060
4427.961212
4424.446713
4426.993258
4426.751612
4428.960394
4434.027670
4431.766253
4420.309359
4386.290804
4378.017169
4453.531745
4429.750991
4421.968927
4439.462217
4453.498004
4433.210952
4436.910905
4375.877286
4411.200400
4434.377110
4451.298446
4428.469124
4429.556582
4430.119407
4431.287270
4430.088461
4428.738709
4427.036148
4425.381642
4425.648337
4425.884108
4428.682274
4432.985002
4429.517880
4427.674831
4427.476174
4454.113662
4409.991210
4459.176149
4445.781097
4440.148329
4437.586622
4437.057866
4454.361905
4434.109759
4426.667631
4388.001996
4438.133050
4421.661559
4409.937523
4434.099588
4421.861404
4428.381231
4429.208110
4427.507608
4426.812340
4427.152658
4429.337950
4429.673480
4432.533597
4431.203540
4430.763966
4427.716032
4424.094950
4426.279915
4427.448680
4425.265380
4436.815720
4421.071620
4424.273617
4402.512846
4472.787575
4395.181377
4429.967733
4454.514802
4439.659928
4403.040206
4397.137009
4420.502256
4418.475039
4421.000902
4448.786817
4419.162420
4428.459236
4429.566375
4429.861664
4431.346925
4429.796010
4428.865827
4426.535935
4425.703167
4425.468407
4425.762099
4428.196516
4432.939230
4428.761320
4428.514367
4427.519730
4428.118283
4464.911527
4460.283779
4431.561237
4352.028408
4436.835630
4437.932961
4430.960889
4417.784302
4437.693827
4434.861471
4462.725569
4445.443709
4417.291690
4483.783833
4414.045040
4428.108140
4429.106068
4427.349536
4426.603420
4426.971102
4428.970028
4429.579054
4432.333036
4431.013197
4430.803885
4427.696241
4424.291886
4426.943111
4426.808982
4426.615268
4404.136920
4442.107767
4403.174513
4384.401158
4391.351149
4487.433663
4421.383968
4425.538411
4412.311208
4428.440869
4440.659121
4387.812780
4463.357603
4389.258465
4434.200763
4425.228712
4428.210134
4429.220159
4429.977417
4430.876249
4429.961911
4428.295994
4426.772417
4425.456878
4426.282893
4425.102812
4428.615261
4432.732515
4429.835397
4428.686008
4426.405639
4429.926242
4418.513255
4398.671868
4401.499559
4435.269992
4436.792050
4424.234971
4421.217797
4482.059061
4446.280685
4435.139727
4409.174460
4456.288364
4448.954854
4401.028678
4395.950975
4428.093527
4428.725691
4427.558953
4426.135313
4427.102556
4428.364689
4429.763282
4431.880469
4431.191546
4430.566082
4427.741926
4424.323699
4426.745945
4426.516032
4428.021753
4447.544836
4427.038961
4421.519527
4474.078740
4374.386090
4416.049070
4425.927819
4431.111949
4387.466191
4436.432955
4454.277378
4442.485914
4406.731528
4428.061277
4418.985537
4441.686594
4428.017303
4429.039676
4429.850504
4430.667923
4429.982750
4428.049462
4426.734407
4425.757179
4426.361060
4424.852752
4428.210416
4432.655677
4430.393408
4428.389498
4427.975969
4414.730914
4447.158050
4411.152526
4457.306608
4457.844232
4433.551417
4443.974068
4479.607202
4402.510834
4452.437977
4403.818279
4438.084056
4462.500648
4404.185299
4456.689807
4408.560410
4427.923642
4428.804208
4427.263650
4426.472292
4426.414391
4428.744084
4429.204394
4431.756950
4431.026079
4430.298997
4427.371743
4424.053352
4425.301499
4426.253542
4424.749795
4435.200793
4474.003068
4443.831378
4383.962122
4442.203469
4426.551825
4423.516002
4432.073273
4461.997459
4457.522210
4460.794437
4415.486576
4416.332565
4412.536738
4422.332404
4429.311785
4427.756653
4429.297900
4429.251698
4430.876798
4430.045144
4427.957118
4426.645106
4426.332711
4425.899483
4424.998362
4427.231585
4432.500818
4428.425080
4427.723601
4425.049108
4418.876811
4435.494931
4419.660598
4431.632539
4414.079932
4442.731330
4439.840919
4435.182241
4452.020806
4435.960971
4418.096800
4455.136212
4433.683910
4412.770449
4476.748027
4441.155008
4427.594027
4429.033172
4426.953524
4426.847722
4425.868284
4429.330138
4428.508526
4432.130366
4430.289280
4430.496195
4426.830226
4424.238179
4425.012754
4425.411395
4426.287592
4407.638372
4437.032141
4402.874571
4425.941783
4445.578442
4431.593915
4430.017875
4440.905255
4431.092574
4449.802450
4436.469882
4433.528978
4431.080840
4404.762377
4398.839448
4447.580977
4427.502807
4429.580984
4428.734797
4431.494488
4429.352472
4428.394614
4426.013838
4427.003106
4425.622041
4425.292929
4426.768499
4432.213108
4428.710624
4427.665356
4425.201060
4426.278341
4427.933640
4405.185907
4453.531710
4387.566528
4429.510131
4420.744728
4443.991673
4417.753076
4433.652331
4413.551039
4400.822193
4448.879632
4446.585078
4414.344558
4400.583247
4427.706799
4428.888536
4427.213683
4426.381143
4426.331212
4428.416604
4428.823728
4432.249233
4430.087111
4430.634789
4427.092777
4424.801980
4424.313203
4425.733184
4423.924015
4437.295563
4432.528389
4424.807380
4417.235705
4406.201787
4442.551120
4421.214434
4429.834668
4425.991184
4446.366072
4451.896231
4430.377411
4459.388403
4439.069442
4436.559373
4430.748656
4427.717976
4429.048529
4429.367500
4430.959446
4429.473100
4428.171052
4426.495968
4426.638233
4426.919967
4424.981403
4426.526002
4432.359031
4429.792735
4427.306354
4426.250498
4422.571286
4418.749564
4437.355844
4440.204239
4392.555117
4430.307651
4441.174492
4415.247548
4450.220073
4424.477558
4464.154725
4377.539140
4439.772731
4439.701751
4418.250757
4416.988229
4428.030068
4428.861036
4427.334285
4426.315342
4426.255834
4427.948607
4429.230922
4431.759762
4430.551062
4429.968749
4427.975327
4424.070015
4425.378550
4424.898046
4425.501746
4442.602662
4446.837356
4446.040834
4457.399426
4388.230865
4416.440432
4440.365216
4364.321664
4471.534275
4433.925729
4439.595030
4418.004290
4438.752417
4460.023060
4407.597726
4417.900303
4427.789883
4428.676495
4429.550627
4430.300406
4430.367577
4427.192264
4427.402941
4426.310606
4427.575234
4424.230516
4426.591762
4432.694953
4428.709560
4426.542381
4426.249173
4440.175936
4420.751895
4423.306757
4460.963668
4387.886745
4435.692758
4440.463672
4424.528616
4469.542804
4479.304732
4470.329120
4415.914404
4397.945669
4456.919735
4368.084050
4422.709243
4427.815334
4429.225075
4427.159680
4426.872652
4425.391236
4429.214514
4428.483485
4431.938114
4430.975019
4430.611228
4426.997732
4424.873535
4424.030236
4423.908852
4424.823781
4430.033440
4432.969140
4411.756309
4383.278705
4423.504348
4444.920037
4435.078927
4426.749456
4382.062261
4452.727023
4399.947217
4440.908047
4435.704308
4393.747507
4413.790684
4446.848430
4427.599841
4429.442589
4428.165298
4431.814192
4429.882231
4428.343688
4426.956686
4428.493231
4426.088665
4424.566433
4427.338451
4431.171770
4428.244055
4427.663183
4424.314921
4428.045477
4425.449259
4427.685759
4434.271534
4457.887015
4421.017868
4426.219183
4474.527634
4442.620336
4413.211056
4441.703193
4411.681600
4477.708225
4409.840476
4568.178136
4412.083918
4427.731845
4429.049684
4427.903394
4426.504673
4426.152726
4428.834877
4428.178651
4432.574520
4430.445572
4430.050009
4426.797482
4426.348805
4424.120167
4425.490920
4422.168138
4426.986098
4420.267992
4438.356102
4430.860719
4465.362724
4466.047882
4435.878097
4443.081411
4492.360155
4439.667576
4433.866528
4436.011171
4443.671038
4436.551363
4276.027109
4426.797428
4428.055950
4429.606163
4428.347851
4431.925058
4429.329660
4428.533517
4425.918972
4428.850502
4425.072383
4425.911262
4426.722022
4430.493186
4427.510636
4426.872059
4422.603041
4420.848073
4414.093158
4393.522989
4405.876548
4448.772870
4412.071551
4439.593820
4439.035075
4457.353098
4403.892577
4403.956639
4440.020248
4447.405395
4420.374553
4382.744965
4404.098601