# vtk DataFile Version 2.0
mfree iwf
ASCII

DATASET UNSTRUCTURED_GRID
POINTS 11811 float
-0.000000 0.000445 0.000000
-0.000000 0.000450 0.000000
-0.000000 0.000455 0.000000
-0.000000 0.000460 0.000000
-0.000000 0.000465 0.000000
-0.000000 0.000470 0.000000
-0.000000 0.000475 0.000000
-0.000000 0.000480 0.000000
0.000000 0.000485 0.000000
0.000000 0.000490 0.000000
-0.000000 0.000496 0.000000
0.000002 0.000500 0.000000
0.001146 0.001028 0.000000
0.001155 0.001026 0.000000
0.001200 0.001009 0.000000
0.001204 0.001006 0.000000
0.001204 0.001006 0.000000
0.001211 0.001003 0.000000
0.001217 0.001000 0.000000
0.001213 0.001002 0.000000
0.001226 0.000996 0.000000
0.001250 0.000983 0.000000
0.001254 0.000978 0.000000
0.001257 0.000975 0.000000
0.001261 0.000971 0.000000
0.001264 0.000967 0.000000
0.001267 0.000964 0.000000
0.001270 0.000959 0.000000
0.001273 0.000956 0.000000
0.001277 0.000951 0.000000
0.001281 0.000947 0.000000
0.001300 0.000935 0.000000
0.000005 0.000445 0.000000
0.000005 0.000450 0.000000
0.000005 0.000455 0.000000
0.000005 0.000460 0.000000
0.000005 0.000465 0.000000
0.000005 0.000470 0.000000
0.000005 0.000475 0.000000
0.000005 0.000480 0.000000
0.000005 0.000485 0.000000
0.000006 0.000489 0.000000
0.000003 0.000496 0.000000
0.000006 0.000499 0.000000
0.001195 0.001010 0.000000
0.001198 0.001001 0.000000
0.001231 0.000991 0.000000
0.001237 0.000988 0.000000
0.001242 0.000985 0.000000
0.001245 0.000983 0.000000
0.001246 0.000981 0.000000
0.001249 0.000977 0.000000
0.001252 0.000974 0.000000
0.001256 0.000969 0.000000
0.001262 0.000963 0.000000
0.001265 0.000959 0.000000
0.001268 0.000953 0.000000
0.001275 0.000947 0.000000
0.001277 0.000943 0.000000
0.001282 0.000940 0.000000
0.001292 0.000935 0.000000
0.001294 0.000934 0.000000
0.001289 0.000938 0.000000
0.001297 0.000933 0.000000
0.000010 0.000445 0.000000
0.000010 0.000450 0.000000
0.000010 0.000455 0.000000
0.000010 0.000460 0.000000
0.000010 0.000465 0.000000
0.000010 0.000469 0.000000
0.000010 0.000475 0.000000
0.000011 0.000479 0.000000
0.000009 0.000486 0.000000
0.000012 0.000489 0.000000
0.000008 0.000497 0.000000
0.000011 0.000498 0.000000
0.001193 0.001006 0.000000
0.001201 0.000999 0.000000
0.001217 0.000995 0.000000
0.001224 0.000992 0.000000
0.001228 0.000990 0.000000
0.001233 0.000988 0.000000
0.001224 0.000986 0.000000
0.001231 0.000982 0.000000
0.001237 0.000980 0.000000
0.001242 0.000976 0.000000
0.001250 0.000970 0.000000
0.001255 0.000966 0.000000
0.001255 0.000959 0.000000
0.001259 0.000956 0.000000
0.001263 0.000955 0.000000
0.001272 0.000949 0.000000
0.001284 0.000938 0.000000
0.001286 0.000936 0.000000
0.001290 0.000930 0.000000
0.001291 0.000924 0.000000
0.000015 0.000445 0.000000
0.000016 0.000450 0.000000
0.000014 0.000456 0.000000
0.000017 0.000460 0.000000
0.000014 0.000469 0.000000
0.000015 0.000465 0.000000
0.000014 0.000476 0.000000
0.000017 0.000480 0.000000
0.000014 0.000485 0.000000
0.000016 0.000489 0.000000
0.000014 0.000495 0.000000
0.000016 0.000497 0.000000
0.000025 0.000500 0.000000
0.001205 0.000999 0.000000
0.001219 0.000993 0.000000
0.001214 0.000991 0.000000
0.001227 0.000984 0.000000
0.001237 0.000985 0.000000
0.001237 0.000976 0.000000
0.001245 0.000972 0.000000
0.001241 0.000970 0.000000
0.001247 0.000967 0.000000
0.001254 0.000953 0.000000
0.001258 0.000963 0.000000
0.001263 0.000949 0.000000
0.001268 0.000949 0.000000
0.001267 0.000944 0.000000
0.001272 0.000942 0.000000
0.001276 0.000937 0.000000
0.001280 0.000934 0.000000
0.001283 0.000930 0.000000
0.001290 0.000922 0.000000
0.000019 0.000445 0.000000
0.000021 0.000450 0.000000
0.000018 0.000455 0.000000
0.000022 0.000459 0.000000
0.000019 0.000469 0.000000
0.000024 0.000467 0.000000
0.000018 0.000474 0.000000
0.000022 0.000479 0.000000
0.000019 0.000486 0.000000
0.000021 0.000491 0.000000
0.000020 0.000497 0.000000
0.000022 0.000499 0.000000
0.000039 0.000500 0.000000
0.001200 0.000987 0.000000
0.001208 0.000993 0.000000
0.001215 0.000985 0.000000
0.001220 0.000989 0.000000
0.001231 0.000978 0.000000
0.001228 0.000973 0.000000
0.001241 0.000966 0.000000
0.001232 0.000971 0.000000
0.001244 0.000961 0.000000
0.001243 0.000953 0.000000
0.001248 0.000948 0.000000
0.001254 0.000947 0.000000
0.001262 0.000942 0.000000
0.001267 0.000934 0.000000
0.001273 0.000933 0.000000
0.001276 0.000931 0.000000
0.001283 0.000925 0.000000
0.001287 0.000926 0.000000
0.001286 0.000919 0.000000
0.000024 0.000445 0.000000
0.000026 0.000450 0.000000
0.000024 0.000455 0.000000
0.000026 0.000461 0.000000
0.000021 0.000464 0.000000
0.000025 0.000472 0.000000
0.000023 0.000476 0.000000
0.000027 0.000481 0.000000
0.000023 0.000485 0.000000
0.000026 0.000488 0.000000
0.000026 0.000492 0.000000
0.000027 0.000500 0.000000
0.001175 0.001019 0.000000
0.001207 0.000996 0.000000
0.001212 0.000995 0.000000
0.001225 0.000979 0.000000
0.001221 0.000982 0.000000
0.001237 0.000973 0.000000
0.001235 0.000966 0.000000
0.001225 0.000974 0.000000
0.001232 0.000962 0.000000
0.001250 0.000963 0.000000
0.001248 0.000956 0.000000
0.001249 0.000959 0.000000
0.001259 0.000952 0.000000
0.001259 0.000946 0.000000
0.001271 0.000937 0.000000
0.001266 0.000939 0.000000
0.001279 0.000927 0.000000
0.001271 0.000928 0.000000
0.001280 0.000922 0.000000
0.001282 0.000915 0.000000
0.000030 0.000445 0.000000
0.000031 0.000450 0.000000
0.000029 0.000455 0.000000
0.000031 0.000460 0.000000
0.000031 0.000464 0.000000
0.000028 0.000469 0.000000
0.000032 0.000472 0.000000
0.000030 0.000477 0.000000
0.000030 0.000486 0.000000
0.000031 0.000492 0.000000
0.000033 0.000497 0.000000
0.000030 0.000499 0.000000
0.000048 0.000500 0.000000
0.001197 0.000995 0.000000
0.001209 0.000983 0.000000
0.001217 0.000980 0.000000
0.001214 0.000981 0.000000
0.001220 0.000976 0.000000
0.001226 0.000966 0.000000
0.001238 0.000954 0.000000
0.001238 0.000962 0.000000
0.001242 0.000957 0.000000
0.001251 0.000952 0.000000
0.001252 0.000938 0.000000
0.001256 0.000943 0.000000
0.001258 0.000939 0.000000
0.001262 0.000929 0.000000
0.001262 0.000935 0.000000
0.001268 0.000924 0.000000
0.001274 0.000924 0.000000
0.001278 0.000918 0.000000
0.001279 0.000912 0.000000
0.000035 0.000445 0.000000
0.000035 0.000450 0.000000
0.000034 0.000456 0.000000
0.000039 0.000454 0.000000
0.000035 0.000467 0.000000
0.000037 0.000472 0.000000
0.000032 0.000479 0.000000
0.000041 0.000479 0.000000
0.000035 0.000483 0.000000
0.000034 0.000488 0.000000
0.000037 0.000491 0.000000
0.000036 0.000498 0.000000
0.001134 0.001028 0.000000
0.001171 0.001021 0.000000
0.001205 0.000987 0.000000
0.001209 0.000977 0.000000
0.001222 0.000968 0.000000
0.001213 0.000966 0.000000
0.001230 0.000967 0.000000
0.001227 0.000960 0.000000
0.001235 0.000959 0.000000
0.001226 0.000952 0.000000
0.001234 0.000944 0.000000
0.001248 0.000939 0.000000
0.001249 0.000943 0.000000
0.001254 0.000934 0.000000
0.001266 0.000928 0.000000
0.001257 0.000918 0.000000
0.001269 0.000918 0.000000
0.001271 0.000919 0.000000
0.001274 0.000914 0.000000
0.001275 0.000909 0.000000
0.000040 0.000445 0.000000
0.000041 0.000450 0.000000
0.000036 0.000462 0.000000
0.000040 0.000458 0.000000
0.000042 0.000463 0.000000
0.000039 0.000468 0.000000
0.000041 0.000473 0.000000
0.000037 0.000477 0.000000
0.000041 0.000488 0.000000
0.000042 0.000491 0.000000
0.000041 0.000497 0.000000
0.000044 0.000498 0.000000
0.000983 0.000986 0.000000
0.001194 0.001003 0.000000
0.001196 0.000991 0.000000
0.001204 0.000974 0.000000
0.001218 0.000972 0.000000
0.001222 0.000964 0.000000
0.001218 0.000969 0.000000
0.001232 0.000955 0.000000
0.001238 0.000948 0.000000
0.001243 0.000948 0.000000
0.001235 0.000951 0.000000
0.001237 0.000935 0.000000
0.001247 0.000933 0.000000
0.001252 0.000927 0.000000
0.001258 0.000933 0.000000
0.001257 0.000928 0.000000
0.001263 0.000923 0.000000
0.001265 0.000916 0.000000
0.001270 0.000912 0.000000
0.001272 0.000906 0.000000
0.000044 0.000445 0.000000
0.000046 0.000450 0.000000
0.000044 0.000455 0.000000
0.000045 0.000460 0.000000
0.000044 0.000467 0.000000
0.000047 0.000473 0.000000
0.000046 0.000479 0.000000
0.000040 0.000483 0.000000
0.000052 0.000485 0.000000
0.000045 0.000483 0.000000
0.000048 0.000493 0.000000
0.000050 0.000498 0.000000
0.000989 0.000990 0.000000
0.001190 0.001012 0.000000
0.001210 0.000987 0.000000
0.001213 0.000973 0.000000
0.001209 0.000972 0.000000
0.001221 0.000959 0.000000
0.001222 0.000955 0.000000
0.001228 0.000955 0.000000
0.001229 0.000944 0.000000
0.001239 0.000942 0.000000
0.001244 0.000944 0.000000
0.001249 0.000930 0.000000
0.001242 0.000932 0.000000
0.001250 0.000925 0.000000
0.001257 0.000923 0.000000
0.001261 0.000920 0.000000
0.001260 0.000914 0.000000
0.001265 0.000912 0.000000
0.001267 0.000908 0.000000
0.001268 0.000902 0.000000
0.000049 0.000445 0.000000
0.000053 0.000450 0.000000
0.000049 0.000454 0.000000
0.000053 0.000455 0.000000
0.000048 0.000465 0.000000
0.000049 0.000471 0.000000
0.000053 0.000468 0.000000
0.000051 0.000477 0.000000
0.000047 0.000488 0.000000
0.000052 0.000491 0.000000
0.000057 0.000492 0.000000
0.000053 0.000498 0.000000
0.001076 0.001024 0.000000
0.001181 0.001009 0.000000
0.001192 0.000998 0.000000
0.001204 0.000977 0.000000
0.001210 0.000966 0.000000
0.001216 0.000962 0.000000
0.001212 0.000958 0.000000
0.001217 0.000956 0.000000
0.001223 0.000946 0.000000
0.001231 0.000949 0.000000
0.001227 0.000942 0.000000
0.001238 0.000940 0.000000
0.001237 0.000927 0.000000
0.001244 0.000937 0.000000
0.001247 0.000922 0.000000
0.001250 0.000914 0.000000
0.001253 0.000920 0.000000
0.001259 0.000909 0.000000
0.001263 0.000905 0.000000
0.001264 0.000899 0.000000
0.000054 0.000445 0.000000
0.000058 0.000450 0.000000
0.000054 0.000460 0.000000
0.000051 0.000461 0.000000
0.000060 0.000466 0.000000
0.000053 0.000473 0.000000
0.000057 0.000477 0.000000
0.000057 0.000480 0.000000
0.000052 0.000483 0.000000
0.000057 0.000486 0.000000
0.000056 0.000497 0.000000
0.000059 0.000496 0.000000
0.001099 0.001026 0.000000
0.001190 0.001013 0.000000
[...]
POINT_DATA 11811
SCALARS density float 1
LOOKUP_TABLE default
4428.880079
4432.018936
4425.297734
4428.087396
4432.889942
4427.409171
4433.537122
4428.243589
4430.559346
4419.512053
4430.136221
4406.013810
4432.497084
4422.037983
4415.413807
4434.723303
4432.990372
4431.584045
4445.362808
4441.908676
4432.421828
4423.398693
4404.595504
4434.369137
4425.884555
4422.927876
4452.265435
4420.862391
4418.456046
4448.554325
4424.046094
4410.365338
4430.587285
4430.185375
4428.529957
4427.596383
4429.319314
4421.613647
4430.471286
4424.946987
4422.031038
4432.882307
4449.202879
4409.081718
4413.636516
4428.762900
4418.985980
4409.553554
4425.777130
4428.298114
4438.302759
4460.384735
4443.680980
4431.928271
4410.752223
4392.929582
4435.631949
4398.070928
4433.638253
4457.997967
4418.166845
4439.088240
4402.439854
4410.985576
4421.375470
4427.411930
4439.576778
4422.696186
4432.655061
4422.266516
4450.833335
4394.780958
4464.471494
4384.350563
4446.954270
4401.340952
4460.772208
4435.532878
4426.976467
4395.055794
4417.505749
4413.733139
4470.131082
4442.680293
4446.778305
4385.938214
4410.913760
4432.076589
4393.272026
4451.558306
4451.094865
4397.606175
4428.509381
4436.134159
4447.289164
4408.197107
4424.319582
4438.685563
4438.883106
4415.417262
4424.337493
4446.951368
4459.244377
4387.466370
4470.477027
4387.312483
4507.410421
4405.074494
4435.932371
4411.978306
4413.862682
4462.561543
4443.969627
4431.489710
4429.872227
4395.231950
4440.611719
4430.541105
4439.325845
4442.223673
4402.059118
4467.536160
4427.409702
4471.893094
4426.268171
4357.667511
4489.526084
4441.903560
4438.222638
4424.513496
4440.053591
4444.227059
4400.108418
4450.829054
4428.177357
4444.029706
4472.835436
4372.823957
4467.132212
4435.082898
4417.149349
4441.486564
4462.771867
4397.744106
4462.081630
4405.390272
4455.627239
4436.913236
4431.015393
4395.799823
4425.499453
4423.196626
4424.347145
4427.032584
4410.454797
4466.708319
4460.648719
4417.053511
4386.957605
4422.369458
4433.310139
4435.218755
4437.144469
4400.614817
4436.083206
4417.827559
4461.528518
4370.017422
4429.784470
4473.388934
4414.676590
4426.209282
4436.211499
4431.321714
4377.776218
4440.568062
4382.319067
4442.359123
4392.948697
4439.724518
4477.381733
4447.847521
4425.647527
4454.758245
4428.140454
4464.726366
4396.313196
4422.195868
4408.818733
4420.206102
4476.347596
4411.676436
4422.528287
4431.403704
4414.220900
4448.715908
4442.247878
4439.875608
4390.683131
4448.002438
4445.998895
4411.099978
4452.827845
4421.051331
4423.323240
4443.258715
4458.531498
4454.297838
4427.817592
4432.279135
4404.570801
4421.664020
4439.908012
4452.691864
4439.073804
4454.193224
4424.437961
4388.101866
4400.223163
4461.390637
4427.637194
4388.688165
4417.645441
4444.616111
4429.516324
4425.975031
4435.162016
4436.056721
4432.860344
4436.199945
4450.746774
4419.254626
4400.267266
4429.603124
4423.952904
4442.846044
4418.756826
4429.491888
4395.949444
4409.921982
4431.980877
4452.919518
4453.159676
4391.379613
4409.933353
4432.165774
4399.913988
4465.036998
4402.803149
4436.667980
4447.873130
4431.022446
4446.207467
4455.833520
4408.004497
4412.026805
4433.394770
4424.267161
4397.276512
4447.569434
4438.339498
4441.617289
4428.425980
4424.028324
4441.439803
4430.417310
4431.802499
4426.767812
4436.358037
4453.112005
4405.264144
4451.331284
4422.253455
4475.115511
4422.669230
4418.745891
4411.700869
4436.540160
4458.594049
4403.245950
4427.888700
4438.933706
4437.551262
4415.321657
4423.059436
4381.699269
4443.382103
4434.152527
4426.842837
4421.949225
4409.843247
4440.321334
4406.421800
4447.233266
4433.503275
4437.982802
4446.991180
4425.299890
4466.466127
4429.193178
4426.748420
4441.757572
4405.384784
4437.807537
4420.586681
4425.787889
4457.743146
4447.369482
4451.036666
4454.184340
4431.407330
4400.361567
4457.532753
4457.070293
4440.201246
4449.516335
4453.881975
4421.763623
4438.321904
4434.265644
4421.679204
4415.961480
4453.894237
4416.330153
4426.712025
4441.818731
4415.687803
4382.525032
4392.775610
4426.004647
4522.280286
4407.901515
4434.821107
4423.726180
4388.312267
4460.165547
4449.656079
4378.815818
4462.059518
4427.891459
4405.970408
4417.509291
4451.368877
4450.275709
4388.037368
4385.746724
4427.566475
4456.881166
4394.506543
4422.273551
4415.149405
4426.506837
4444.898205
4422.018344
4434.953392
4421.808407
4418.670539
4446.939474
4407.303830
4450.812026
4469.261388
4366.252743
4416.342702
4408.691360
4433.630772
4429.579982
4419.850208
4398.020164
4461.458548
4406.676345
4390.999253
4421.426032
4427.712300
4390.844095
4446.235679
4443.949431
4459.594781
4416.006887
4461.681832
4408.663615
4415.202150
4443.368588
4439.256953
4425.489687
4425.941868
4433.598460
4424.143130
4406.012065
4424.336400
4442.197570
4423.863015
4403.831112
4449.663739
4398.443149
4446.419701
4440.157718
4419.926686
4425.906098
4413.728319
4378.697697
4402.023248
4434.692951
4438.855671
4448.980658
4448.995180
4452.577481
4453.869252
4400.841817
4413.348153
4444.357823
4428.714222
4398.540785
4415.120762
4427.495145
4431.258658
4434.428958
4441.031648
4438.965373
4441.408866
4405.110815
4439.672043
4418.698524
4409.126495
4421.038131
4459.241671
4416.769577
4413.177529
4445.318642
4410.436776
4431.279507
4418.868723
4388.975046
4429.257215
4394.858581
4448.131552
4412.808802
4412.219593
4451.561212
4463.862383
4443.838868
4415.548185
4458.996209
4430.666217
4431.149607
4435.231583
4448.199912
4420.834416
4430.072955
4416.360680
4416.675361
4451.376312
4442.402007
4423.915392
4431.217201
4421.910132
4428.634603
4386.137308
4430.236378
4439.895947
4448.796087
4434.397176
4443.106866
4423.181635
4464.567925
4443.771839
4464.590792
4453.849875
4446.828135
4394.216969
4410.260060
4417.199435
4437.128955
4463.578997
4396.764554
4443.896650
4409.526365
4426.762253
4398.897572
4436.181820
4433.746172
4441.932206
4415.694939
4419.058065
4414.891169
4426.800189
4422.911919
4462.039140
4428.818810
4451.759632
4411.846535
4382.377596
4446.002076
4427.842700
4427.183062
4432.555394
4449.067594
4444.523682
4418.275291
4415.303549
4407.688575
4388.163383
4406.160185
4413.932614
4432.562002
4414.863838
4444.103548
4415.476126
4442.662828
4438.327511
4434.533045
4434.170404
4421.629850
4436.303763
4443.559000
4426.254325
4425.722544
4442.021095
4405.458155
4416.776817
4455.326793
4441.800333
4413.914915
4411.495655
4429.736197
4422.293311
4422.289324
4428.972421
4434.435514
4471.045881
4444.092813
4405.627083
4446.258478
4412.300247
4453.436109
4406.076249
4424.613351
4423.772064
4390.825299
4410.116813
4445.974314
4400.831850
4433.429148
4425.332078
4447.931738
4442.964331
4436.308094
4425.400205
4426.819104
4426.715042
4427.228035
4414.766975
4448.759401
4381.437672
4488.715893
4438.340758
4445.595272
4430.433744
4430.344665
4442.592383
4431.462739
4465.115385
4415.160604
4485.851974
4503.310064
4441.421304
4446.623010
4410.974419
4448.357248
4430.886805
4429.506350
4417.830440
4439.388285
4452.264367
4440.182342
4419.027478
4434.375689
4409.970266
4429.819332
4429.440018
4406.045328
4461.377650
4453.427392
4437.277380
4474.622285
4446.702797
4420.757095
4403.139510
4431.772424
4420.041631
4427.685783
4433.674200
4443.942286
4420.522233
4439.326094
4426.942065
4449.139795
4441.947138
4454.454793
4468.647980
4393.553930
4430.267954
4434.348518
4438.358545
4431.355375
4400.581778
4415.921345
4423.613433
4429.956124
4456.825241
4413.281794
4455.324506
4428.969045
4412.883425
4413.378272
4445.891963
4397.136558
4421.179828
4441.320239
4433.699691
4433.414367
4417.943532
4441.075898
4442.942087
4469.418102
4425.758786
4435.846045
4408.957705
4455.500874
4481.459095
4428.103604
4444.513443
4431.192339
4413.263531
4423.289468
4422.017133
4440.124225
4420.055598
4456.925786
4436.972777
4434.944092
4430.299231
4430.537605
4439.485476
4431.692150
4425.957864
4431.450964
4410.180369
4414.093542
4441.720135
4459.327344
4401.602170
4492.026322
4424.141812
4426.466490
4421.856645
4468.938108
4439.686004
4418.211124
4358.740350
4429.966829
4388.960844
4469.270327
4490.132760
4422.669012
4482.686966
4465.016779
4407.542207
4421.246803
4444.511522
4430.001093
4409.784817
4434.885304
4436.217774
4427.622552
4429.880211
4432.945996
4440.897715
4432.205878
4436.839068
4424.636553
4452.733503
4369.591977
4432.388087
4430.128758
4432.424884
4421.689542
4430.805579
4441.110291
4445.081866
4427.404428
4444.198498
4437.059316
4392.646539
4348.962760
4459.406528
4408.078253
4448.001894
4413.694453
4413.243814
4445.933863
4418.459957
4430.584050
4436.275352
4436.515113
4416.430597
4435.337675
4395.430968
4428.028202
4432.130195
4420.644942
4438.444593
4423.613131
4453.410440
4398.567375
4414.694001
4450.978917
4429.392124
4466.837812
4384.031565
4447.492124
4433.611084
4432.197663
4424.078478
4462.363347
4443.853307
4353.859785
4366.997661
4444.219478
4381.492276
4398.664831
4397.789774
4415.394215
4436.525333
4431.260607
4423.897296
4427.606769
4434.585971
4430.203868
4449.525591
4427.642130
4433.789462
4419.903511
4429.016376
4424.799022
4431.284310
4440.054953
4438.334916
4431.986838
4459.731925
4421.517842
4439.896624
4393.783007
4360.878141
4398.670862
4405.172739
4425.706437
4382.741491
4453.864481
4441.716888
4461.256506
4442.726195
4444.199540
4418.927042
4441.085555
4433.946153
4439.178486
4435.334440
4422.326436
4428.193703
4430.401518
4430.605539
4430.728860
4430.544557
4430.028299
4429.626498
4429.197819
4429.414585
4430.118492
4431.286309
4431.821963
4431.629140
4431.103999
4430.475937
4428.874692
4429.932715
4428.754888
4428.689160
4429.451163
4430.579611
4432.074874
4433.293796
4433.458965
4431.951098
4429.707391
4428.270296
4428.706981
4430.276311
4431.059287
4429.287597
4430.110382
4431.313410
4431.680521
4431.295703
4429.864947
4428.593074
4426.969925
4427.017951
4428.675940
4431.506818
4433.243371
4432.203142
4430.652264
4428.643421
4429.735979
4429.718366
4428.470259
4428.132591
4428.760743
4430.223121
4431.786783
4433.693465
4433.739498
4432.056737
4428.962665
4426.944326
4426.605637
4428.580268
4429.349998
4429.830313
4429.901028
4431.378003
4431.752044
4431.246150
4429.805569
4428.272722
4426.308144
4426.357763
4427.811073
4431.200645
4432.602990
4432.913562
4429.090714
4429.648500
4429.771909
4429.533998
4428.583257
4427.506293
4428.980033
4429.472296
4432.034682
4432.902540
4434.122789
4431.092402
4429.276422
4425.854690
4427.591973
4428.037983
4430.388580
4429.874284
4429.745865
4431.428793
4431.615411
4431.145904
4429.599882
4428.031553
4426.034263
4426.052274
4427.535741
4430.672547
4432.709927
4431.545664
4428.527227
4427.613968
4429.652477
4429.540206
4428.388640
4427.609206
4428.427322
4429.736809
4431.318408
4433.200877
4433.366826
4431.470870
4428.621918
4425.831252
4427.024978
4427.668702
4429.532883
4429.263107
4429.959387
4430.919712
4431.602789
4431.110118
4429.228527
4428.071207
4425.630912
4426.104764
4427.097215
4430.688282
4432.869886
4432.607108
4430.015297
4430.747408
4429.523355
4429.459467
4428.248502
4427.500763
4428.191911
4429.633395
4431.018095
4432.997954
4433.126539
4431.228074
4428.766592
4425.599092
4427.787094
4429.567107
4429.630017
4429.334612
4429.804574
4430.882207
4431.612401
4430.621299
4429.438574
4427.289207
4426.002976
4425.611709
4427.179757
4429.971184
4433.412370
4430.776601
4429.478575
4427.448877
4429.327696
4429.484454
4427.982595
4427.290466
4428.010772
4429.261590
4430.954117
4432.678561
4432.949346
4431.254830
4428.294475
4425.444024
4427.322225
4427.927134
4428.721410
4429.093811
4429.529483
4430.831025
4431.371948
4430.484373
4429.129999
4427.297505
4425.615915
4425.923479
4426.445534
4430.324643
4432.956128
4431.920471
4429.497487
4430.789494
4450.250283
4439.233395
4397.054528
4453.293020
4432.932233
4445.663124
4430.275003
4412.543557
4392.337384
4459.484833
4458.934068
4421.144813
4435.490488
4459.789009
4429.059379
4416.354440
4429.059844
4429.215069
4428.104361
4426.640423
4428.157795
4428.769522
4430.891958
4432.385071
4432.566069
4431.104187
4428.220750
4425.205223
4428.040546
4429.299860
4431.372351
4439.720737
4412.575540
4422.442493
4414.781403
4449.791095
4438.458972
4436.004221
4440.567919
4393.693308
4408.942390
4423.302544
4434.300828
4423.677777
4381.487184
4466.220096
4405.815643
4428.658507
4429.411303
4430.572311
4431.188899
4430.379953
4428.714253
4427.395663
4425.188786
4426.146293
4425.932902
4429.855145
4432.799502
4431.333195
4429.323347
4429.004086
4441.112572
4422.794995
4443.407390
4429.602412
4418.191635
4451.838105
4412.029337
4437.419376
4402.769761
4431.284197
4431.991054
4430.608730
4426.111330
4442.952134
4429.658716
4419.146806
4428.830680
4429.329841
4427.624256
4426.861785
4427.385937
4429.280359
4429.954231
4432.718674
4431.509323
4431.130169
4427.917928
4424.392874
4427.041559
4426.653783
4429.727417
4430.310574
4429.808848
4421.739713
4384.574139
4377.902990
4453.309325
4433.687097
4420.944148
4439.720409
4452.585297
4431.297604
4438.604977
4383.086810
4406.449261
4435.486737
4450.702387
4428.419825
4429.534272
4430.099869
4431.268648
4430.107109
4428.711070
4427.019733
4425.333476
4425.633624
4425.829022
4428.712395
4432.925680
4429.621261
4427.680486
4427.547150
4451.827733
4413.746061
4462.284744
4444.344106
4439.476851
4438.044330
4437.116086
4454.900130
4434.070065
4424.866204
4386.523226
4430.912260
4431.975512
4408.584720
4436.373914
4421.852636
4428.338009
4429.194396
4427.487642
4426.766181
4427.100902
4429.310653
4429.652125
4432.497032
4431.172949
4430.693428
4427.749140
4424.028503
4426.250199
4427.468749
4424.943683
4438.334366
4421.652412
4424.756932
4406.516841
4472.061851
4394.845323
4431.949926
4451.065675
4438.496408
4404.989127
4400.130478
4420.070954
4409.455389
4420.182611
4448.930838
4419.260743
4428.406179
4429.526152
4429.831776
4431.315803
4429.805568
4428.832130
4426.504349
4425.664383
4425.433764
4425.779365
4428.128975
4433.033723
4428.725962
4428.575198
4427.707271
4429.238724
4461.188004
4458.987966
4434.516211
4353.797830
4436.721388
4437.363267
4430.449805
4419.315912
4435.637976
4439.844157
4464.195775
4446.592835
4417.572579
4480.390636
4415.519406
4428.057412
4429.069881
4427.330451
4426.534078
4426.933878
4428.913572
4429.565217
4432.293325
4430.948517
4430.798641
4427.660478
4424.292706
4426.910551
4426.827987
4426.486298
4407.264669
4435.548942
4400.361679
4385.843976
4392.966092
4486.397691
4422.348220
4426.291708
4415.220331
4425.146751
4438.333733
4390.635790
4464.922214
4386.006021
4430.666645
4424.612743
4428.149241
4429.164551
4429.946658
4430.820896
4429.965996
4428.269683
4426.722227
4425.428563
4426.268645
4425.052915
4428.669703
4432.706218
4429.929891
4428.730250
4426.548341
4425.903305
4411.628695
4398.111829
4400.404058
4435.183065
4436.647073
4425.760073
4422.999162
4481.907945
4444.079595
4432.920169
4411.263822
4458.159611
4447.333154
4405.280228
4396.036368
4428.031075
4428.699546
4427.505650
4426.091130
4427.043692
4428.305258
4429.753052
4431.801022
4431.170154
4430.500370
4427.738648
4424.339043
4426.792284
4426.378844
4428.222685
4448.133943
4426.927676
4421.863344
4470.085206
4376.270707
4415.777839
4426.980075
4432.891735
4388.141814
4438.380839
4453.663976
4441.067103
4407.317174
4428.622133
4417.025464
4442.391533
4427.946681
4428.988716
4429.796322
4430.614866
4429.972282
4428.020414
4426.675604
4425.750261
4426.311326
4424.872732
4428.189116
4432.681800
4430.383641
4428.517876
4427.643368
4418.453395
4445.810820
4417.714788
4456.384089
4459.559962
4433.170118
4443.650068
4480.570102
4390.580164
4460.896690
4402.912410
4437.446424
4461.555531
4402.637470
4459.237918
4409.846227
4427.859247
4428.766705
4427.213244
4426.432202
4426.338778
4428.720095
4429.134461
4431.744527
4430.924768
4430.283345
4427.321061
4424.099280
4425.228810
4426.391335
4424.603776
4435.717241
4477.102978
4446.471325
4383.123815
4440.268643
4428.564604
4423.633717
4434.635762
4469.054863
4450.895639
4463.222752
4417.886674
4413.871256
4412.578797
4424.097083
4431.247316
4427.696246
4429.243671
4429.186308
4430.841188
4430.008577
4427.927570
4426.592805
4426.302689
4425.859957
4425.014503
4427.170912
4432.570925
4428.443375
4427.746878
4425.203475
4421.458042
4433.295699
4419.978744
4432.146852
4414.582663
4444.409329
4439.108378
4434.085060
4458.070688
4442.666579
4432.718527
4445.874910
4434.872590
4416.142808
4474.493577
4440.634067
4427.531966
4428.989058
4426.917203
4426.782160
4425.825894
4429.268831
4428.474428
4432.076076
4430.204495
4430.443115
4426.830272
4424.205778
4425.066117
4425.435603
4426.406284
4408.051382
4438.347859
4400.698549
4430.894857
4447.177974
4431.403363
4431.105046
4441.243575
4426.881555
4454.574676
4421.543688
4431.303489
4433.888769
4403.082104
4400.054502
4446.164906
4427.453936
4429.505323
4428.698269
4431.423344
4429.351898
4428.326558
4426.006847
4426.931889
4425.646458
4425.231275
4426.770368
4432.194023
4428.682380
4427.643204
4425.220434
4432.055931
4425.710060
4403.875342
4449.167837
4387.787449
4429.315960
4422.256786
4444.179626
4414.048652
4429.982096
4419.788389
4401.864699
4444.696231
4448.601626
4413.684596
4400.701850
4427.667623
4428.834656
4427.192121
4426.321501
4426.295520
4428.354977
4428.797984
4432.167808
4430.014667
4430.544827
4427.080439
4424.740767
4424.399302
4425.620720
4424.009308
4430.986168
4428.629507
4427.786048
4413.825674
4407.314366
4442.838732
4425.229445
4431.098800
4424.986295
4447.238134
4456.543420
4432.951987
4465.876633
4434.174563
4437.953515
4431.631156
4427.677467
4428.988045
4429.328872
4430.892259
4429.472318
4428.111754
4426.464032
4426.614782
4426.882870
4424.954249
4426.498155
4432.334823
4429.697321
4427.182439
4426.169813
4423.329940
4418.525497
4437.867758
4439.986576
4392.669389
4429.770796
4439.780506
4417.494504
4450.897051
4422.329026
4466.093037
4379.154823
4443.187315
4435.134880
4413.762981
4415.561428
4427.997858
4428.831283
4427.302304
4426.291071
4426.203215
4427.925588
4429.175877
4431.694324
4430.483665
4429.863502
4427.913831
4424.044513
4425.340197
4424.834352
4425.256628
4442.057275
4448.895129
4447.518674
4457.055777
4388.340397
4416.306816
4440.916159
4367.208405
4472.009881
4435.289348
4439.301454
4421.898297
4437.991179
4458.686196
4406.432597
4418.356462
4427.761010
4428.637755
4429.506255
4430.267568
4430.357912
4427.150534
4427.360855
4426.299967
4427.542787
4424.219619
4426.577400
4432.677412
4428.598417
4426.429144
4426.123688
4440.323796
4418.775099
4423.948602
4461.505226
4389.289769
4435.653320
4440.349221
4425.058394
4467.734146
4479.954463
4468.110496
4413.132434
4392.040428
4456.807986
4370.872839
4423.282957
4427.794528
4429.202308
4427.148229
4426.836718
4425.374218
4429.189866
4428.446097
4431.880888
4430.893628
4430.521694
4426.911926
4424.848599
4424.032892
4423.842177
4424.684079
4428.551016
4434.768812
4411.708201
4383.084169
4423.189327
4445.013670
4436.995078
4424.361592
4381.364172
4455.328667
4400.464776
4442.177532
4444.670400
4392.603260
4412.163653
4447.207565
4427.592780
4429.400707
4428.156141
4431.770479
4429.891069
4428.297404
4426.926476
4428.474014
4426.073396
4424.558099
4427.354596
4431.157469
4428.141616
4427.584339
4424.294923
4427.403663
4425.023228
4426.993359
4434.341973
4457.175288
4420.900656
4426.903985
4477.027948
4442.095501
4412.855441
4439.892571
4408.533014
4479.291744
4407.236311
4566.423675
4412.494062
4427.730967
4429.049445
4427.883024
4426.499492
4426.141132
4428.818468
4428.169599
4432.503770
4430.426736
4429.932376
4426.777520
4426.317572
4424.174721
4425.453629
4421.993794
4426.646993
4419.551337
4437.955916
4430.973518
4465.214135
4466.109718
4435.987039
4441.881728
4492.133748
4436.939728
4434.021287
4437.673165
4439.847036
4434.469516
4277.429678
4426.733001
4428.055856
4429.584877
4428.337562
4431.881892
4429.357191
4428.481884
4425.929738
4428.843409
4425.096668
4425.924830
4426.773192
4430.484844
4427.473115
4426.751112
4422.727018
4420.726433
4413.853627
4392.936024
4405.471925
4449.437854
4412.256604
4439.586779
4438.291851
4457.949298
4404.920302
4404.555155
4437.511386
4446.694885
4427.372797
4383.113285
4404.430946