# vtk DataFile Version 2.0
mfree iwf
ASCII

DATASET UNSTRUCTURED_GRID
POINTS 9192 float
0.000000 0.000445 0.000000
0.000000 0.000450 0.000000
0.000000 0.000455 0.000000
0.000000 0.000460 0.000000
0.000000 0.000465 0.000000
0.000000 0.000470 0.000000
0.000000 0.000475 0.000000
0.000000 0.000480 0.000000
0.000001 0.000485 0.000000
0.000001 0.000490 0.000000
0.000000 0.000496 0.000000
0.000002 0.000500 0.000000
0.000260 0.000664 0.000000
0.000262 0.000673 0.000000
0.000282 0.000715 0.000000
0.000285 0.000720 0.000000
0.000285 0.000720 0.000000
0.000288 0.000725 0.000000
0.000292 0.000731 0.000000
0.000291 0.000730 0.000000
0.000297 0.000741 0.000000
0.000313 0.000764 0.000000
0.000317 0.000768 0.000000
0.000321 0.000771 0.000000
0.000325 0.000773 0.000000
0.000329 0.000777 0.000000
0.000332 0.000779 0.000000
0.000337 0.000783 0.000000
0.000340 0.000785 0.000000
0.000346 0.000788 0.000000
0.000351 0.000792 0.000000
0.000372 0.000809 0.000000
0.000005 0.000445 0.000000
0.000005 0.000450 0.000000
0.000005 0.000455 0.000000
0.000005 0.000460 0.000000
0.000005 0.000465 0.000000
0.000005 0.000470 0.000000
0.000005 0.000475 0.000000
0.000005 0.000480 0.000000
0.000005 0.000485 0.000000
0.000006 0.000490 0.000000
0.000004 0.000496 0.000000
0.000006 0.000499 0.000000
0.000280 0.000710 0.000000
0.000291 0.000717 0.000000
0.000303 0.000746 0.000000
0.000306 0.000751 0.000000
0.000309 0.000755 0.000000
0.000312 0.000758 0.000000
0.000314 0.000760 0.000000
0.000318 0.000763 0.000000
0.000324 0.000767 0.000000
0.000328 0.000770 0.000000
0.000334 0.000774 0.000000
0.000338 0.000778 0.000000
0.000345 0.000781 0.000000
0.000350 0.000787 0.000000
0.000353 0.000789 0.000000
0.000358 0.000792 0.000000
0.000363 0.000800 0.000000
0.000366 0.000803 0.000000
0.000363 0.000800 0.000000
0.000371 0.000807 0.000000
0.000010 0.000445 0.000000
0.000011 0.000450 0.000000
0.000010 0.000455 0.000000
0.000011 0.000460 0.000000
0.000010 0.000466 0.000000
0.000010 0.000469 0.000000
0.000011 0.000475 0.000000
0.000011 0.000480 0.000000
0.000010 0.000486 0.000000
0.000012 0.000490 0.000000
0.000009 0.000497 0.000000
0.000011 0.000498 0.000000
0.000285 0.000710 0.000000
0.000294 0.000718 0.000000
0.000299 0.000733 0.000000
0.000301 0.000739 0.000000
0.000303 0.000743 0.000000
0.000306 0.000748 0.000000
0.000310 0.000742 0.000000
0.000315 0.000751 0.000000
0.000317 0.000755 0.000000
0.000322 0.000761 0.000000
0.000326 0.000763 0.000000
0.000331 0.000769 0.000000
0.000336 0.000768 0.000000
0.000342 0.000772 0.000000
0.000343 0.000777 0.000000
0.000349 0.000783 0.000000
0.000361 0.000793 0.000000
0.000363 0.000795 0.000000
0.000369 0.000801 0.000000
0.000375 0.000802 0.000000
0.000015 0.000445 0.000000
0.000016 0.000450 0.000000
0.000015 0.000456 0.000000
0.000016 0.000459 0.000000
0.000015 0.000465 0.000000
0.000016 0.000471 0.000000
0.000014 0.000475 0.000000
0.000017 0.000480 0.000000
0.000015 0.000485 0.000000
0.000017 0.000489 0.000000
0.000015 0.000495 0.000000
0.000017 0.000498 0.000000
0.000025 0.000500 0.000000
0.000294 0.000722 0.000000
0.000300 0.000734 0.000000
0.000305 0.000733 0.000000
0.000312 0.000746 0.000000
0.000309 0.000751 0.000000
0.000321 0.000751 0.000000
0.000322 0.000755 0.000000
0.000330 0.000756 0.000000
0.000331 0.000764 0.000000
0.000342 0.000766 0.000000
0.000337 0.000772 0.000000
0.000347 0.000775 0.000000
0.000351 0.000778 0.000000
0.000355 0.000782 0.000000
0.000356 0.000785 0.000000
0.000362 0.000787 0.000000
0.000368 0.000792 0.000000
0.000370 0.000796 0.000000
0.000378 0.000799 0.000000
0.000020 0.000445 0.000000
0.000021 0.000450 0.000000
0.000020 0.000456 0.000000
0.000021 0.000461 0.000000
0.000019 0.000466 0.000000
0.000022 0.000467 0.000000
0.000020 0.000475 0.000000
0.000022 0.000479 0.000000
0.000019 0.000486 0.000000
0.000022 0.000490 0.000000
0.000021 0.000497 0.000000
0.000022 0.000499 0.000000
0.000039 0.000500 0.000000
0.000301 0.000720 0.000000
0.000302 0.000726 0.000000
0.000306 0.000729 0.000000
0.000306 0.000739 0.000000
0.000315 0.000741 0.000000
0.000319 0.000747 0.000000
0.000326 0.000757 0.000000
0.000326 0.000750 0.000000
0.000334 0.000760 0.000000
0.000340 0.000758 0.000000
0.000348 0.000764 0.000000
0.000349 0.000770 0.000000
0.000353 0.000774 0.000000
0.000358 0.000777 0.000000
0.000366 0.000782 0.000000
0.000366 0.000787 0.000000
0.000374 0.000791 0.000000
0.000374 0.000795 0.000000
0.000380 0.000796 0.000000
0.000025 0.000445 0.000000
0.000026 0.000450 0.000000
0.000026 0.000455 0.000000
0.000025 0.000458 0.000000
0.000025 0.000466 0.000000
0.000026 0.000472 0.000000
0.000023 0.000476 0.000000
0.000027 0.000480 0.000000
0.000024 0.000485 0.000000
0.000026 0.000489 0.000000
0.000027 0.000492 0.000000
0.000027 0.000500 0.000000
0.000269 0.000691 0.000000
0.000297 0.000724 0.000000
0.000298 0.000728 0.000000
0.000310 0.000736 0.000000
0.000315 0.000736 0.000000
0.000318 0.000743 0.000000
0.000328 0.000743 0.000000
0.000323 0.000744 0.000000
0.000331 0.000752 0.000000
0.000335 0.000755 0.000000
0.000337 0.000763 0.000000
0.000342 0.000762 0.000000
0.000346 0.000769 0.000000
0.000356 0.000772 0.000000
0.000361 0.000781 0.000000
0.000363 0.000776 0.000000
0.000371 0.000787 0.000000
0.000371 0.000782 0.000000
0.000378 0.000790 0.000000
0.000383 0.000792 0.000000
0.000030 0.000445 0.000000
0.000031 0.000450 0.000000
0.000029 0.000458 0.000000
0.000033 0.000461 0.000000
0.000029 0.000464 0.000000
0.000031 0.000469 0.000000
0.000031 0.000473 0.000000
0.000031 0.000477 0.000000
0.000031 0.000485 0.000000
0.000031 0.000492 0.000000
0.000033 0.000497 0.000000
0.000031 0.000499 0.000000
0.000049 0.000500 0.000000
0.000295 0.000712 0.000000
0.000310 0.000724 0.000000
0.000311 0.000731 0.000000
0.000315 0.000731 0.000000
0.000320 0.000738 0.000000
0.000329 0.000746 0.000000
0.000335 0.000749 0.000000
0.000335 0.000745 0.000000
0.000344 0.000753 0.000000
0.000346 0.000760 0.000000
0.000353 0.000766 0.000000
0.000358 0.000764 0.000000
0.000358 0.000769 0.000000
0.000363 0.000771 0.000000
0.000367 0.000778 0.000000
0.000376 0.000780 0.000000
0.000376 0.000784 0.000000
0.000381 0.000787 0.000000
0.000386 0.000789 0.000000
0.000035 0.000445 0.000000
0.000035 0.000450 0.000000
0.000038 0.000454 0.000000
0.000034 0.000456 0.000000
0.000035 0.000466 0.000000
0.000037 0.000471 0.000000
0.000033 0.000479 0.000000
0.000041 0.000479 0.000000
0.000035 0.000484 0.000000
0.000035 0.000488 0.000000
0.000038 0.000491 0.000000
0.000036 0.000498 0.000000
0.000259 0.000652 0.000000
0.000268 0.000688 0.000000
0.000306 0.000718 0.000000
0.000315 0.000726 0.000000
0.000323 0.000734 0.000000
0.000325 0.000730 0.000000
0.000326 0.000739 0.000000
0.000332 0.000740 0.000000
0.000339 0.000752 0.000000
0.000341 0.000747 0.000000
0.000349 0.000755 0.000000
0.000354 0.000758 0.000000
0.000354 0.000761 0.000000
0.000367 0.000767 0.000000
0.000368 0.000773 0.000000
0.000373 0.000772 0.000000
0.000373 0.000777 0.000000
0.000380 0.000779 0.000000
0.000384 0.000783 0.000000
0.000389 0.000785 0.000000
0.000040 0.000445 0.000000
0.000040 0.000450 0.000000
0.000038 0.000460 0.000000
0.000042 0.000457 0.000000
0.000040 0.000465 0.000000
0.000040 0.000469 0.000000
0.000043 0.000475 0.000000
0.000037 0.000476 0.000000
0.000042 0.000487 0.000000
0.000042 0.000492 0.000000
0.000042 0.000497 0.000000
0.000045 0.000498 0.000000
0.000258 0.000546 0.000000
0.000290 0.000712 0.000000
0.000302 0.000714 0.000000
0.000318 0.000717 0.000000
0.000320 0.000730 0.000000
0.000327 0.000735 0.000000
0.000333 0.000736 0.000000
0.000337 0.000741 0.000000
0.000345 0.000744 0.000000
0.000346 0.000752 0.000000
0.000350 0.000748 0.000000
0.000358 0.000755 0.000000
0.000361 0.000760 0.000000
0.000366 0.000762 0.000000
0.000363 0.000766 0.000000
0.000372 0.000768 0.000000
0.000378 0.000772 0.000000
0.000382 0.000775 0.000000
0.000387 0.000779 0.000000
0.000392 0.000781 0.000000
0.000045 0.000445 0.000000
0.000046 0.000450 0.000000
0.000045 0.000454 0.000000
0.000046 0.000461 0.000000
0.000045 0.000465 0.000000
0.000046 0.000470 0.000000
0.000046 0.000479 0.000000
0.000040 0.000483 0.000000
0.000051 0.000485 0.000000
0.000046 0.000483 0.000000
0.000048 0.000493 0.000000
0.000051 0.000498 0.000000
0.000258 0.000552 0.000000
0.000279 0.000707 0.000000
0.000306 0.000724 0.000000
0.000320 0.000725 0.000000
0.000323 0.000724 0.000000
0.000332 0.000730 0.000000
0.000339 0.000735 0.000000
0.000340 0.000740 0.000000
0.000346 0.000743 0.000000
0.000354 0.000747 0.000000
0.000354 0.000751 0.000000
0.000364 0.000757 0.000000
0.000359 0.000751 0.000000
0.000370 0.000760 0.000000
0.000374 0.000764 0.000000
0.000378 0.000767 0.000000
0.000382 0.000769 0.000000
0.000386 0.000772 0.000000
0.000390 0.000775 0.000000
0.000395 0.000777 0.000000
0.000050 0.000445 0.000000
0.000051 0.000450 0.000000
0.000050 0.000456 0.000000
0.000051 0.000460 0.000000
0.000050 0.000465 0.000000
0.000051 0.000473 0.000000
0.000050 0.000471 0.000000
0.000051 0.000478 0.000000
0.000047 0.000488 0.000000
0.000053 0.000491 0.000000
0.000058 0.000492 0.000000
0.000053 0.000498 0.000000
0.000258 0.000592 0.000000
0.000282 0.000702 0.000000
0.000292 0.000709 0.000000
0.000315 0.000720 0.000000
0.000328 0.000723 0.000000
0.000329 0.000727 0.000000
0.000338 0.000727 0.000000
0.000335 0.000732 0.000000
0.000350 0.000737 0.000000
0.000346 0.000738 0.000000
0.000356 0.000744 0.000000
0.000364 0.000748 0.000000
0.000363 0.000752 0.000000
0.000368 0.000755 0.000000
0.000375 0.000758 0.000000
0.000378 0.000760 0.000000
0.000383 0.000764 0.000000
0.000388 0.000768 0.000000
0.000393 0.000771 0.000000
0.000397 0.000773 0.000000
0.000055 0.000445 0.000000
0.000056 0.000450 0.000000
0.000055 0.000455 0.000000
0.000056 0.000461 0.000000
0.000055 0.000464 0.000000
0.000056 0.000469 0.000000
0.000056 0.000476 0.000000
0.000058 0.000481 0.000000
0.000054 0.000482 0.000000
0.000057 0.000487 0.000000
0.000056 0.000497 0.000000
0.000060 0.000497 0.000000
0.000258 0.000615 0.000000
0.000277 0.000705 0.000000
0.000286 0.000707 0.000000
[...]
POINT_DATA 9192
SCALARS density float 1
LOOKUP_TABLE default
4429.174975
4429.232685
4427.229788
4425.404275
4422.319943
4429.314868
4444.512049
4434.403312
4440.340068
4422.647158
4432.644067
4398.062974
4431.442446
4442.199676
4451.541800
4429.342875
4440.566287
4440.817729
4449.425283
4449.332347
4434.583393
4428.819367
4406.413367
4445.974588
4426.132662
4419.544084
4445.258189
4432.882764
4420.107675
4450.046650
4441.969952
4449.101506
4429.811971
4426.596837
4425.280275
4433.569189
4439.639569
4412.479128
4407.317946
4415.584715
4414.089522
4419.743098
4447.746341
4400.191268
4418.667087
4446.784521
4405.593649
4424.938687
4412.431313
4409.725746
4429.992882
4451.521706
4423.377267
4437.021393
4432.084805
4399.179680
4438.510330
4396.028157
4392.035512
4413.321013
4408.848031
4416.989066
4412.385881
4421.344772
4422.760207
4433.091999
4439.276477
4411.900662
4434.607008
4434.847359
4462.911021
4405.261170
4474.743676
4365.681224
4473.473159
4404.539576
4382.992374
4465.012248
4433.855223
4392.448836
4418.575716
4422.558996
4431.910727
4402.567957
4441.990986
4409.519376
4408.229909
4417.435680
4400.340313
4414.133783
4447.825344
4395.158125
4441.473945
4424.456608
4447.936519
4407.420736
4431.951825
4446.498741
4447.585768
4442.214190
4434.003072
4379.059676
4456.172733
4366.173047
4474.531337
4388.103792
4516.379023
4400.495560
4436.246248
4355.892863
4436.828704
4444.657389
4399.427123
4469.359310
4444.897207
4419.176349
4434.311107
4430.418933
4428.528765
4453.409744
4415.599289
4445.893996
4463.715534
4490.786348
4450.766254
4376.744411
4518.176678
4450.497836
4435.716475
4417.223154
4431.813806
4405.739104
4463.514892
4445.594045
4450.542026
4446.912732
4464.259505
4368.904247
4468.660400
4438.530868
4420.186703
4392.021314
4462.606166
4381.095228
4521.866246
4444.324092
4426.859535
4455.303378
4417.096318
4421.649585
4415.531362
4430.159235
4426.730202
4417.536833
4383.205728
4463.493874
4439.641226
4438.763864
4326.282042
4449.178015
4427.512552
4431.704860
4429.247769
4442.009900
4444.741013
4389.627128
4461.368912
4374.031144
4429.033743
4463.391142
4419.199916
4425.956430
4434.546779
4478.591695
4379.458185
4348.870737
4466.913023
4443.641612
4446.037624
4426.291406
4407.321903
4441.654679
4451.229136
4441.802457
4456.931759
4442.325313
4365.350300
4478.429311
4459.344996
4382.630663
4445.932415
4417.632112
4437.184768
4421.448712
4419.716437
4445.682901
4416.042481
4449.993856
4433.982908
4457.220658
4438.574586
4388.307851
4459.562170
4423.310050
4425.815578
4428.976974
4447.657919
4477.108325
4429.417419
4383.072864
4436.229453
4461.175074
4429.479980
4451.824262
4411.037718
4410.539403
4421.750935
4434.157442
4389.495787
4445.538333
4473.117273
4406.093241
4407.041256
4439.634081
4438.269514
4421.802552
4431.364187
4414.863597
4420.288369
4415.577190
4439.916858
4452.834441
4430.838875
4437.781837
4421.040106
4447.016178
4435.613166
4425.670760
4421.491787
4378.236636
4460.500140
4427.567601
4438.279441
4412.075313
4433.258053
4378.621184
4415.522689
4438.100199
4447.201162
4429.566057
4424.073559
4457.433799
4420.918632
4450.490949
4408.752923
4427.209557
4422.233984
4431.037001
4437.156080
4390.335115
4432.013924
4438.735603
4437.273169
4414.422395
4442.906753
4435.208077
4430.953154
4420.442009
4660.742515
4362.980330
4448.387571
4445.743842
4402.643131
4424.767908
4434.113799
4443.445638
4467.362089
4447.643255
4409.083859
4429.103489
4418.550562
4423.449421
4453.718505
4449.648715
4385.070284
4424.138174
4416.420510
4437.601703
4431.565900
4412.916658
4429.005297
4424.955173
4446.178850
4400.040811
4438.723630
4418.519369
4452.093664
4415.995506
4468.059183
4439.107858
4526.314590
4413.087482
4438.163816
4463.772241
4441.726789
4441.299049
4411.629639
4430.643335
4445.117229
4449.413607
4429.960771
4427.162058
4407.215815
4420.332745
4413.064871
4430.792333
4448.705919
4458.265135
4423.741216
4415.396401
4438.540446
4422.374523
4435.384139
4447.126602
4394.762368
4469.864946
4449.266844
4371.346876
4386.639339
4409.756236
4543.326036
4409.154015
4472.148374
4482.235726
4450.180049
4448.352154
4431.085834
4429.634169
4428.981044
4445.701912
4446.349296
4416.822326
4450.490657
4432.783258
4446.736040
4444.089317
4454.177084
4452.911368
4440.046731
4402.466140
4431.527713
4430.565151
4427.982670
4426.615483
4415.872245
4415.297538
4440.602883
4423.185151
4406.965589
4451.399277
4490.801309
4356.385478
4415.079207
4386.136696
4483.777824
4414.755793
4516.649418
4433.545397
4457.702142
4422.370666
4405.746162
4451.656272
4417.962261
4452.568442
4440.938894
4414.483602
4415.179361
4408.151310
4429.451303
4418.787671
4453.581771
4433.015205
4431.727430
4417.663260
4424.190194
4413.081932
4439.262348
4410.159124
4432.259116
4426.927315
4437.572038
4393.888478
4469.696803
4422.906911
4441.702156
4432.560911
4409.659537
4444.334977
4445.026659
4403.723045
4384.019879
4430.040685
4442.156636
4451.945269
4412.419530
4462.003299
4413.509990
4455.233352
4431.465576
4446.136278
4437.377636
4457.623059
4414.145419
4422.352731
4421.120704
4430.367807
4433.820204
4415.368920
4416.512993
4445.510611
4428.346209
4423.603974
4450.781924
4412.313521
4442.004624
4360.950104
4466.689052
4428.112347
4482.077597
4426.733742
4438.694417
4389.353322
4433.845691
4425.806438
4432.304732
4458.972752
4410.960211
4429.632460
4431.817289
4452.878379
4395.976276
4436.260381
4397.494359
4441.829137
4430.229074
4439.457804
4424.591947
4426.191427
4428.229420
4429.210357
4429.734736
4387.478508
4424.132870
4448.212260
4396.666834
4449.629815
4385.748710
4420.485382
4435.681068
4455.919929
4606.911437
4413.491170
4413.289569
4467.184948
4449.570077
4408.414240
4447.618575
4453.069235
4384.283617
4426.059731
4399.095914
4442.167761
4405.523276
4452.221718
4425.786937
4441.673448
4422.959302
4422.263503
4423.812744
4425.943429
4439.110928
4414.540763
4430.689851
4448.260286
4434.020095
4393.391754
4443.037907
4463.304232
4472.031656
4346.961494
4413.769142
4454.438039
4428.720997
4422.268999
4421.691957
4350.094178
4435.186593
4485.855054
4441.818106
4429.015338
4448.702635
4473.660409
4451.951996
4418.995002
4472.759238
4452.133307
4445.291715
4417.464007
4421.873157
4432.573868
4426.086109
4424.116121
4426.128092
4420.821461
4437.617077
4401.555956
4437.297231
4446.006210
4438.842219
4396.296879
4445.386490
4513.582178
4402.896987
4426.396352
4420.314948
4455.312818
4479.681819
4425.448006
4447.450196
4424.407448
4455.112572
4419.590478
4423.660182
4475.083973
4389.320720
4433.410471
4439.574175
4432.444324
4416.052774
4441.125559
4438.834370
4432.773646
4427.255093
4426.851850
4447.518362
4417.811544
4420.611884
4453.983745
4449.021274
4393.188512
4439.433017
4441.182580
4390.704323
4385.392089
4444.644916
4455.413680
4495.778260
4494.931111
4463.542947
4442.681292
4431.838408
4382.387386
4469.070442
4462.672511
4446.743359
4478.265276
4455.596324
4397.158040
4427.187588
4459.162982
4417.792843
4422.799933
4410.509414
4430.056305
4428.131602
4429.681281
4415.022704
4427.423331
4450.449845
4401.562498
4412.091706
4450.436110
4451.606593
4456.913224
4436.985270
4439.166881
4390.942907
4423.702392
4412.319163
4417.755031
4425.707037
4386.212495
4428.035160
4400.194920
4457.902512
4412.234344
4406.642783
4418.376495
4441.792932
4414.311894
4473.901021
4403.882183
4459.119125
4431.768798
4447.609686
4436.331506
4415.357956
4426.610037
4445.912909
4430.058896
4412.644640
4453.949050
4428.660033
4432.873192
4429.082858
4415.226401
4464.071459
4440.143329
4430.070466
4429.895642
4404.727434
4410.125951
4461.662490
4411.020367
4424.061245
4452.454596
4432.218092
4389.121848
4488.797572
4410.042274
4419.692752
4413.078626
4463.006325
4402.483541
4430.338247
4416.913757
4411.849204
4429.888315
4426.005348
4428.298495
4411.862630
4423.732739
4435.466586
4403.226264
4430.349798
4411.872200
4393.734406
4399.767608
4447.569201
4483.800541
4380.592487
4557.520614
4420.528991
4435.395038
4449.543138
4464.705207
4409.339119
4441.864784
4396.741894
4476.715684
4434.973393
4483.767644
4447.367328
4420.557985
4441.991088
4459.277962
4405.508986
4485.445116
4432.643767
4412.599558
4435.546485
4421.399128
4450.781567
4446.306913
4408.717283
4423.828106
4442.042712
4416.799879
4445.992649
4414.182445
4470.443725
4382.696334
4429.694402
4427.539250
4460.570459
4411.463183
4412.808411
4376.873744
4424.671672
4481.931903
4504.870199
4459.240446
4410.541163
4363.156901
4446.998620
4480.080683
4448.211658
4417.569069
4435.241175
4428.762957
4420.245128
4427.991492
4426.863214
4432.855237
4422.264567
4425.144261
4434.578227
4443.120427
4424.575348
4399.688187
4427.343376
4407.920792
4453.315173
4376.758474
4361.338760
4492.124824
4424.096171
4445.565929
4441.913062
4459.166661
4453.938857
4446.638989
4426.620019
4421.081768
4378.830084
4398.649981
4379.681886
4452.330084
4425.727785
4412.408594
4458.689230
4433.355382
4473.938367
4419.241516
4410.336422
4425.926816
4442.993549
4436.264746
4404.851684
4412.723124
4402.399890
4429.359593
4436.605091
4440.076382
4454.368252
4459.188606
4420.734605
4427.785880
4394.260061
4435.425269
4358.948852
4350.370331
4492.887794
4466.046602
4434.365799
4393.886171
4448.176738
4439.256026
4407.717354
4405.233980
4457.532793
4451.756050
4427.062320
4431.839407
4423.240991
4407.240848
4452.975709
4424.143464
4417.156001
4428.380013
4427.926787
4428.425633
4428.976541
4429.067142
4429.480334
4429.557723
4429.925921
4430.066126
4430.489905
4430.538406
4430.737791
4430.604118
4429.893532
4420.623507
4427.100587
4427.119475
4427.994442
4428.504016
4428.791133
4429.332860
4429.405140
4429.886328
4429.766659
4430.059505
4430.110339
4430.329784
4430.478079
4430.691587
4423.322161
4427.056202
4426.804886
4427.443027
4428.238514
4428.219977
4428.827894
4428.787841
4429.316094
4429.314134
4429.990855
4429.681522
4429.617635
4430.027655
4429.120747
4424.532399
4427.324394
4427.225218
4427.759355
4428.250111
4428.440615
4428.915191
4428.984737
4429.301070
4429.178663
4429.168386
4429.000138
4429.454862
4428.494075
4429.435268
4425.951586
4427.533319
4427.467352
4427.541655
4428.102451
4427.993760
4428.562618
4428.344366
4428.915531
4428.695227
4429.437533
4428.814273
4429.352981
4427.735265
4428.826829
4426.329409
4427.813451
4427.831541
4427.692467
4428.515221
4428.108473
4428.896848
4428.487800
4429.188593
4428.449173
4429.002142
4428.227161
4428.729015
4427.589526
4428.291188
4426.715604
4428.039073
4427.741741
4427.882272
4428.027181
4428.010524
4428.336338
4428.231754
4428.456833
4428.630266
4428.812811
4428.758833
4428.606103
4427.582111
4428.776908
4427.046617
4428.262695
4427.926290
4428.070535
4428.280230
4428.396754
4428.426703
4428.636745
4428.687231
4428.508421
4428.547680
4428.259700
4428.423073
4427.353195
4427.922375
4427.059480
4428.230177
4427.987545
4427.924822
4428.143541
4427.847915
4428.332486
4427.967568
4428.410417
4428.299408
4428.993634
4428.589023
4429.307920
4428.526487
4427.520409
4427.440265
4428.358826
4428.103797
4428.102797
4428.330262
4428.266417
4428.418477
4428.380843
4428.541185
4428.455224
4428.337596
4428.872049
4428.756285
4429.080691
4431.020147
4427.203142
4428.396049
4427.982374
4428.032865
4427.965965
4427.965930
4427.945875
4427.996159
4428.040888
4428.221829
4428.813036
4428.625148
4430.064484
4429.506846
4430.135193
4427.380647
4428.555071
4427.913896
4428.265193
4428.141926
4428.161424
4428.243197
4428.121242
4428.344747
4428.133917
4428.258939
4428.351698
4428.906654
4429.331873
4430.824136
4427.477161
4428.375713
4428.057995
4428.023837
4427.789301
4427.959293
4427.656475
4427.917283
4427.652417
4428.085901
4427.959593
4428.391936
4428.703863
4429.308445
4429.795522
4437.149072
4434.576775
4404.715360
4462.467190
4449.169194
4448.676926
4430.752887
4449.771219
4405.377329
4441.089331
4395.474341
4463.886131
4409.285610
4450.942555
4424.795563
4409.013679
4427.550893
4428.425704
4428.053176
4428.050964
4428.140679
4427.941880
4428.052424
4427.926311
4427.918579
4427.658280
4427.653390
4427.489931
4427.066315
4427.827654
4427.618045
4424.726217
4454.000096
4415.875431
4433.665741
4418.195313
4432.804964
4404.107676
4422.470345
4448.871452
4447.841033
4424.302501
4451.171673
4427.165297
4455.078200
4392.459069
4400.793346
4427.305542
4428.250038
4428.090224
4427.839071
4427.871756
4427.462290
4427.875667
4427.049994
4427.717269
4427.097192
4427.647810
4427.022865
4427.654407
4426.100650
4428.164198
4420.589428
4447.209746
4438.822118
4407.180500
4393.751311
4445.357821
4452.683018
4406.346095
4450.485829
4397.284532
4443.992735
4418.950244
4411.430315
4445.534248
4375.144976
4438.601094
4427.483484
4428.307480
4428.155499
4427.754426
4428.121110
4427.745880
4427.761357
4427.686307
4427.557205
4427.084570
4427.297513
4426.120255
4426.755584
4423.983868
4426.786276
4418.780869
4416.153305
4405.436977
4373.264201
4395.092990
4446.853349
4399.466703
4453.874667
4403.394957
4425.249067
4412.168161
4407.734625
4396.533423
4424.464964
4428.442591
4422.471384
4427.175644
4428.375802
4427.779310
4428.034514
4427.548365
4427.438130
4427.570721
4427.021587
4427.216301
4427.031868
4426.765373
4426.098912
4425.947957
4424.072943
4422.064375
4439.583387
4458.500326
4419.334552
4438.946164
4456.812403
4428.665662
4460.659164
4438.521477
4424.639808
4403.981202
4445.852145
4450.214520
4396.897663
4367.427490
4434.969223
4408.272351
4427.267873
4428.417217
4427.870397
4427.940083
4427.656956
4427.920434
4427.437379
4427.587174
4427.407540
4426.738535
4426.568529
4426.083725
4425.098625
4423.937128
4422.697756
4416.672758
4395.580955
4451.124476
4433.035589
4490.129328
4380.437756
4466.416076
4408.943789
4396.446812
4396.178810
4386.691534
4449.881634
4398.712830
4455.094769
4441.726409
4426.677071
4427.483084
4428.132103
4428.094880
4427.658673
4427.786891
4427.308298
4427.451865
4427.412973
4426.684856
4427.394103
4426.156132
4426.101298
4425.738261
4424.215851
4423.567656
4452.325394
4443.306517
4450.976115
4384.090932
4339.330573
4444.605020
4535.532984
4439.218684
4442.385820
4414.616015
4423.512239
4438.420068
4495.354464
4440.990176
4483.030084
4408.645126
4427.380015
4428.341677
4427.901038
4427.996432
4427.645414
4427.815846
4427.833141
4427.107135
4427.921875
4426.297142
4427.303675
4426.024576
4426.129788
4425.739056
4425.117774
4434.725519
4416.946469
4429.803887
4397.769790
4407.856405
4460.901848
4473.789531
4446.467269
4470.735894
4428.254619
4449.814114
4386.588416
4388.720364
4453.580510
4410.490416
4428.993683
4427.351031
4428.111160
4428.126325
4427.536798
4428.061771
4427.315283
4427.833858
4427.240212
4427.468110
4426.968992
4427.098518
4426.699048
4426.815613
4426.701022
4426.915787
4431.891583
4451.657668
4393.749387
4434.934431
4411.210074
4432.622540
4442.963790
4411.235016
4469.817799
4426.818793
4431.606150
4379.400640
4411.967007
4450.051179
4407.119698
4418.832664
4427.522259
4428.076991
4428.338442
4427.665948
4428.198622
4427.614985
4428.023604
4427.509176
4427.307061
4427.193473
4427.146287
4426.368942
4427.735599
4425.996756
4426.757551
4432.479526
4425.134176
4445.723678
4440.947119
4362.791159
4403.986195
4506.534264
4473.899833
4451.771057
4376.474956
4433.139762
4457.580546
4400.009400
4444.840125
4423.942118
4435.583642
4427.513757
4428.341707
4427.960201
4428.164117
4427.633724
4427.905112
4427.660472
4427.073441
4427.881311
4426.530697
4427.453121
4427.053646
4426.526628
4425.923736
4425.809546
4424.286763
4418.088464
4446.671474
4415.478906
4442.299194
4426.684662
4481.277105
4504.403448
4441.881180
4442.818967
4400.887299
4450.107019
4439.807243
4441.037455
4374.093015
4406.559581
4427.677585
4428.351411
4428.136966
4427.860449
4428.165354
4427.587060
4427.909267
4427.621346
4427.162183
4427.519101
4427.499312
4426.608013
4427.236717
4425.995064
4424.099663
4443.660156
4454.049056
4416.888523
4432.657332
4410.462788
4417.039239
4430.116898
4477.011015
4488.602572
4482.881177
4467.343110
4394.126790
4423.976900
4389.566649
4285.060692
4446.010169
4427.833672
4428.112119
4428.504434
4427.777757
4428.030787
4427.684655
4427.794627
4427.298210
4428.027175
4427.431896
4427.437535
4427.323165
4427.102891
4426.918745
4426.741626
4427.796209
4433.126923
4437.525278
4449.169648
4423.919653
4411.865179
4505.311865
4447.131773
4444.829843
4416.221466
4451.901158
4457.805001
4403.672721
4419.743970
4506.099120
4447.657251
4427.779038
4428.496585
4428.083266
4428.288331
4427.941632
4427.970284
4428.192769
4427.821898
4427.997376
4427.224134
4427.923175
4426.816623
4427.555345
4426.269753
4427.120062
4429.929967
4415.792901
4442.166830
4446.822883
4472.454256
4560.487937
4494.279894
4446.397300
4466.334157
4468.257410
4430.285863
4444.475668
4429.192266
4409.678588
4415.220157
4433.461298
4427.638254
4428.515830
4428.278445
4427.959211
4428.318174
4428.018835
4427.972400
4427.892208
4427.608044
4427.733044
4426.895919
4427.314680
4427.542253
4427.920457
4426.100852
4440.662116
4433.985838
4424.984320
4455.384745
4443.434553
4482.344071
4491.630399
4484.008824
4452.105551
4450.913558
4472.309186
4461.510433
4431.971444
4436.322517
4409.319022
4424.679108
4427.812820
4428.529719
4428.309998
4428.668432
4428.008430
4428.433152
4428.131832
4427.924433
4427.935920
4427.145799
4428.045530
4427.365243
4427.911018
4428.484609
4427.525786
4438.772359
4436.892658
4433.219948
4448.089967
4451.826901
4462.559605
4452.142434
4476.102078
4425.572813
4492.053242
4473.056151
4465.040806
4451.889446
4405.541592
4435.122722
4423.076118
4427.999676
4428.831356
4428.284633
4428.551593
4428.249044
4428.475299
4428.084522
4428.224877
4427.824274
4428.216048
4427.328954
4427.922860
4427.824107
4427.497979
4429.000760
4433.338751
4438.669750
4405.274357
4424.772671
4453.228662
4472.658059
4445.286970
4476.114321
4486.788881
4423.870954
4413.210156
4466.448456
4449.624602
4430.919954
4389.745937
4413.453546
4428.041389
4428.689026
4428.618798
4428.584762
4428.546356
4428.445760
4428.344275
4428.215149
4427.889868
4427.404585
4427.627551
4427.243432
4427.042923
4427.353432
4425.562915
4433.618635
4421.259197
4430.647529
4433.343011
4433.738387
4453.588602
4446.753224
4450.921242
4465.123732
4449.599980
4450.343610
4448.530806
4474.409821
4471.652429
4416.577762
4423.097904
4428.307879
4428.750567
4428.750181
4428.813062
4428.335633
4428.529864
4428.228885
4427.860282
4427.853663
4427.448295
4427.554575
4426.806774
4427.724597
4426.202271
4425.869602
4420.985636
4428.283435
4426.688364
4458.645160
4431.747708
4455.000042
4436.162939
4471.617110
4441.123117
4443.970068
4423.764936
4448.307869
4463.297608
4436.684875
4463.844169
4409.337780
4428.270190
4429.112895
4428.704751
4428.829854
4428.629472
4428.612593
4428.356796
4428.434809
4427.989090
4428.033637
4427.146766
4427.915189
4425.643831
4424.863215
4427.386019
4435.126068
4420.662555
4420.758393
4413.059503
4427.456424
4423.267213
4458.389204
4459.314398
4459.706420
4427.055652
4449.155260
4413.567348
4454.500038
4452.228224
4445.023007
4402.456283
4428.385394
4429.047948
4428.893939
4428.944477
4428.737694
4428.745826
4428.811274
4428.478657
4428.479204
4427.873627
4428.263855
4425.822242
4427.461641
4427.171952
4423.007543
4430.127919
4434.171445
4442.622269
4431.603413
4437.091861
4399.471570
4450.699606
4416.926984
4467.407181
4436.560924
4457.651330
4445.023605
4462.825028
4458.793156
4360.849122
4419.278409
4428.691251
4429.254369
4429.122486
4429.305549
4428.909745
4429.289649
4428.746512
4428.676691
4428.476766
4428.004312
4426.777038
4427.579366
4426.058584
4424.954825
4425.866548
4423.690835
4421.353532
4436.571652
4429.592253
4426.481026
4451.900733
4455.545724
4451.481249
4430.751291
4448.826143
4442.360795
4438.756103
4436.460167
4442.961679
4494.357749
4418.267924
4429.032767
4429.549821
4429.164240
4429.545862
4428.995384
4429.382619
4428.660228
4429.361617
4427.870444
4428.982078
4427.249626
4426.898409
4425.741589
4426.632137
4426.955291
4439.774204
4431.851642
4431.977137
4434.963728
4405.788268
4418.354436
4427.467251
4453.279779
4439.961935
4446.882008
4462.599675
4458.189533
4399.142103
4445.325759
4549.222520
4376.895992