# vtk DataFile Version 2.0
mfree iwf
ASCII

DATASET UNSTRUCTURED_GRID
POINTS 10728 float
0.000000 0.000445 0.000000
0.000000 0.000450 0.000000
0.000000 0.000455 0.000000
0.000000 0.000460 0.000000
0.000000 0.000465 0.000000
0.000000 0.000470 0.000000
0.000000 0.000475 0.000000
0.000000 0.000480 0.000000
0.000000 0.000485 0.000000
0.000000 0.000490 0.000000
-0.000000 0.000496 0.000000
0.000002 0.000500 0.000000
0.000770 0.000910 0.000000
0.000779 0.000912 0.000000
0.000826 0.000913 0.000000
0.000832 0.000912 0.000000
0.000831 0.000912 0.000000
0.000839 0.000912 0.000000
0.000846 0.000911 0.000000
0.000841 0.000912 0.000000
0.000856 0.000911 0.000000
0.000883 0.000908 0.000000
0.000889 0.000905 0.000000
0.000893 0.000903 0.000000
0.000897 0.000901 0.000000
0.000902 0.000899 0.000000
0.000906 0.000897 0.000000
0.000911 0.000894 0.000000
0.000914 0.000892 0.000000
0.000920 0.000889 0.000000
0.000926 0.000886 0.000000
0.000949 0.000880 0.000000
0.000005 0.000445 0.000000
0.000005 0.000450 0.000000
0.000005 0.000455 0.000000
0.000005 0.000460 0.000000
0.000005 0.000465 0.000000
0.000005 0.000470 0.000000
0.000005 0.000475 0.000000
0.000005 0.000480 0.000000
0.000005 0.000485 0.000000
0.000006 0.000489 0.000000
0.000003 0.000496 0.000000
0.000006 0.000499 0.000000
0.000821 0.000912 0.000000
0.000829 0.000905 0.000000
0.000863 0.000908 0.000000
0.000869 0.000908 0.000000
0.000874 0.000907 0.000000
0.000878 0.000906 0.000000
0.000881 0.000905 0.000000
0.000885 0.000902 0.000000
0.000888 0.000900 0.000000
0.000894 0.000897 0.000000
0.000900 0.000894 0.000000
0.000907 0.000891 0.000000
0.000911 0.000888 0.000000
0.000920 0.000885 0.000000
0.000923 0.000882 0.000000
0.000929 0.000880 0.000000
0.000940 0.000879 0.000000
0.000942 0.000879 0.000000
0.000937 0.000881 0.000000
0.000947 0.000878 0.000000
0.000010 0.000445 0.000000
0.000011 0.000450 0.000000
0.000009 0.000455 0.000000
0.000011 0.000460 0.000000
0.000010 0.000465 0.000000
0.000010 0.000470 0.000000
0.000010 0.000475 0.000000
0.000011 0.000479 0.000000
0.000009 0.000486 0.000000
0.000012 0.000489 0.000000
0.000009 0.000497 0.000000
0.000011 0.000498 0.000000
0.000822 0.000908 0.000000
0.000832 0.000904 0.000000
0.000848 0.000907 0.000000
0.000856 0.000907 0.000000
0.000860 0.000907 0.000000
0.000866 0.000907 0.000000
0.000859 0.000901 0.000000
0.000868 0.000900 0.000000
0.000874 0.000900 0.000000
0.000880 0.000899 0.000000
0.000890 0.000896 0.000000
0.000895 0.000893 0.000000
0.000895 0.000889 0.000000
0.000900 0.000886 0.000000
0.000906 0.000887 0.000000
0.000917 0.000884 0.000000
0.000932 0.000879 0.000000
0.000934 0.000878 0.000000
0.000941 0.000874 0.000000
0.000944 0.000869 0.000000
0.000015 0.000445 0.000000
0.000016 0.000450 0.000000
0.000014 0.000456 0.000000
0.000016 0.000460 0.000000
0.000014 0.000468 0.000000
0.000016 0.000465 0.000000
0.000014 0.000476 0.000000
0.000016 0.000480 0.000000
0.000014 0.000485 0.000000
0.000016 0.000489 0.000000
0.000014 0.000495 0.000000
0.000016 0.000497 0.000000
0.000025 0.000500 0.000000
0.000836 0.000906 0.000000
0.000851 0.000906 0.000000
0.000849 0.000901 0.000000
0.000863 0.000901 0.000000
0.000870 0.000905 0.000000
0.000877 0.000896 0.000000
0.000882 0.000895 0.000000
0.000879 0.000890 0.000000
0.000887 0.000893 0.000000
0.000899 0.000882 0.000000
0.000901 0.000891 0.000000
0.000909 0.000881 0.000000
0.000913 0.000883 0.000000
0.000915 0.000878 0.000000
0.000920 0.000878 0.000000
0.000925 0.000875 0.000000
0.000930 0.000874 0.000000
0.000935 0.000871 0.000000
0.000943 0.000866 0.000000
0.000020 0.000445 0.000000
0.000021 0.000450 0.000000
0.000019 0.000455 0.000000
0.000022 0.000459 0.000000
0.000019 0.000470 0.000000
0.000025 0.000467 0.000000
0.000018 0.000475 0.000000
0.000021 0.000478 0.000000
0.000019 0.000486 0.000000
0.000021 0.000491 0.000000
0.000021 0.000497 0.000000
0.000022 0.000499 0.000000
0.000039 0.000500 0.000000
0.000836 0.000894 0.000000
0.000841 0.000901 0.000000
0.000849 0.000896 0.000000
0.000855 0.000903 0.000000
0.000865 0.000896 0.000000
0.000869 0.000890 0.000000
0.000884 0.000891 0.000000
0.000874 0.000892 0.000000
0.000887 0.000882 0.000000
0.000891 0.000878 0.000000
0.000894 0.000875 0.000000
0.000900 0.000877 0.000000
0.000910 0.000876 0.000000
0.000918 0.000868 0.000000
0.000923 0.000871 0.000000
0.000928 0.000868 0.000000
0.000936 0.000866 0.000000
0.000939 0.000869 0.000000
0.000941 0.000862 0.000000
0.000025 0.000445 0.000000
0.000026 0.000450 0.000000
0.000024 0.000455 0.000000
0.000026 0.000462 0.000000
0.000021 0.000464 0.000000
0.000024 0.000471 0.000000
0.000024 0.000477 0.000000
0.000026 0.000481 0.000000
0.000023 0.000485 0.000000
0.000026 0.000488 0.000000
0.000026 0.000492 0.000000
0.000027 0.000500 0.000000
0.000800 0.000913 0.000000
0.000839 0.000904 0.000000
0.000844 0.000905 0.000000
0.000860 0.000896 0.000000
0.000857 0.000892 0.000000
0.000871 0.000895 0.000000
0.000875 0.000886 0.000000
0.000865 0.000891 0.000000
0.000876 0.000881 0.000000
0.000888 0.000887 0.000000
0.000893 0.000883 0.000000
0.000892 0.000886 0.000000
0.000904 0.000882 0.000000
0.000906 0.000877 0.000000
0.000920 0.000874 0.000000
0.000915 0.000873 0.000000
0.000931 0.000867 0.000000
0.000924 0.000865 0.000000
0.000935 0.000862 0.000000
0.000939 0.000857 0.000000
0.000030 0.000445 0.000000
0.000031 0.000450 0.000000
0.000030 0.000455 0.000000
0.000030 0.000460 0.000000
0.000032 0.000464 0.000000
0.000028 0.000470 0.000000
0.000032 0.000472 0.000000
0.000030 0.000477 0.000000
0.000031 0.000486 0.000000
0.000031 0.000492 0.000000
0.000033 0.000497 0.000000
0.000030 0.000499 0.000000
0.000049 0.000500 0.000000
0.000829 0.000899 0.000000
0.000846 0.000893 0.000000
0.000854 0.000896 0.000000
0.000851 0.000891 0.000000
0.000860 0.000891 0.000000
0.000870 0.000884 0.000000
0.000883 0.000883 0.000000
0.000880 0.000885 0.000000
0.000886 0.000878 0.000000
0.000897 0.000879 0.000000
0.000903 0.000868 0.000000
0.000904 0.000873 0.000000
0.000909 0.000870 0.000000
0.000915 0.000864 0.000000
0.000913 0.000868 0.000000
0.000923 0.000861 0.000000
0.000928 0.000862 0.000000
0.000933 0.000859 0.000000
0.000937 0.000854 0.000000
0.000035 0.000445 0.000000
0.000035 0.000450 0.000000
0.000034 0.000456 0.000000
0.000039 0.000454 0.000000
0.000034 0.000467 0.000000
0.000037 0.000472 0.000000
0.000032 0.000479 0.000000
0.000042 0.000479 0.000000
0.000035 0.000483 0.000000
0.000034 0.000488 0.000000
0.000037 0.000491 0.000000
0.000036 0.000498 0.000000
0.000759 0.000905 0.000000
0.000796 0.000913 0.000000
0.000840 0.000894 0.000000
0.000848 0.000887 0.000000
0.000862 0.000884 0.000000
0.000856 0.000880 0.000000
0.000867 0.000885 0.000000
0.000870 0.000878 0.000000
0.000880 0.000878 0.000000
0.000878 0.000872 0.000000
0.000886 0.000867 0.000000
0.000895 0.000867 0.000000
0.000899 0.000870 0.000000
0.000904 0.000863 0.000000
0.000919 0.000863 0.000000
0.000915 0.000851 0.000000
0.000925 0.000856 0.000000
0.000928 0.000856 0.000000
0.000932 0.000854 0.000000
0.000935 0.000849 0.000000
0.000040 0.000445 0.000000
0.000041 0.000450 0.000000
0.000037 0.000462 0.000000
0.000040 0.000458 0.000000
0.000041 0.000462 0.000000
0.000040 0.000468 0.000000
0.000041 0.000473 0.000000
0.000036 0.000477 0.000000
0.000041 0.000488 0.000000
0.000042 0.000491 0.000000
0.000041 0.000497 0.000000
0.000044 0.000498 0.000000
0.000635 0.000808 0.000000
0.000825 0.000905 0.000000
0.000831 0.000895 0.000000
0.000845 0.000882 0.000000
0.000857 0.000886 0.000000
0.000866 0.000880 0.000000
0.000860 0.000882 0.000000
0.000875 0.000877 0.000000
0.000884 0.000874 0.000000
0.000889 0.000871 0.000000
0.000882 0.000870 0.000000
0.000892 0.000863 0.000000
0.000900 0.000864 0.000000
0.000908 0.000857 0.000000
0.000909 0.000865 0.000000
0.000912 0.000860 0.000000
0.000917 0.000858 0.000000
0.000923 0.000851 0.000000
0.000929 0.000850 0.000000
0.000933 0.000845 0.000000
0.000044 0.000445 0.000000
0.000047 0.000450 0.000000
0.000044 0.000455 0.000000
0.000046 0.000461 0.000000
0.000044 0.000468 0.000000
0.000046 0.000473 0.000000
0.000046 0.000479 0.000000
0.000039 0.000483 0.000000
0.000052 0.000486 0.000000
0.000045 0.000483 0.000000
0.000048 0.000493 0.000000
0.000050 0.000498 0.000000
0.000640 0.000815 0.000000
0.000817 0.000912 0.000000
0.000844 0.000897 0.000000
0.000853 0.000886 0.000000
0.000850 0.000882 0.000000
0.000865 0.000876 0.000000
0.000869 0.000871 0.000000
0.000873 0.000873 0.000000
0.000878 0.000866 0.000000
0.000888 0.000865 0.000000
0.000894 0.000871 0.000000
0.000903 0.000859 0.000000
0.000894 0.000859 0.000000
0.000902 0.000854 0.000000
0.000912 0.000855 0.000000
0.000918 0.000853 0.000000
0.000917 0.000848 0.000000
0.000923 0.000847 0.000000
0.000927 0.000845 0.000000
0.000931 0.000840 0.000000
0.000049 0.000445 0.000000
0.000052 0.000450 0.000000
0.000048 0.000455 0.000000
0.000054 0.000458 0.000000
0.000048 0.000464 0.000000
0.000051 0.000472 0.000000
0.000051 0.000467 0.000000
0.000050 0.000477 0.000000
0.000047 0.000488 0.000000
0.000052 0.000491 0.000000
0.000057 0.000492 0.000000
0.000053 0.000498 0.000000
0.000707 0.000880 0.000000
0.000810 0.000906 0.000000
0.000823 0.000900 0.000000
0.000843 0.000886 0.000000
0.000853 0.000876 0.000000
0.000859 0.000875 0.000000
0.000860 0.000870 0.000000
0.000864 0.000872 0.000000
0.000875 0.000861 0.000000
0.000873 0.000868 0.000000
0.000879 0.000862 0.000000
0.000889 0.000858 0.000000
0.000896 0.000854 0.000000
0.000897 0.000859 0.000000
0.000906 0.000852 0.000000
0.000909 0.000845 0.000000
0.000910 0.000849 0.000000
0.000921 0.000843 0.000000
0.000925 0.000840 0.000000
0.000928 0.000836 0.000000
0.000054 0.000445 0.000000
0.000057 0.000450 0.000000
0.000053 0.000455 0.000000
0.000053 0.000463 0.000000
0.000059 0.000466 0.000000
0.000053 0.000473 0.000000
0.000058 0.000476 0.000000
0.000056 0.000480 0.000000
0.000052 0.000483 0.000000
0.000057 0.000486 0.000000
0.000056 0.000497 0.000000
0.000059 0.000496 0.000000
0.000727 0.000891 0.000000
0.000816 0.000913 0.000000
0.000815 0.000906 0.000000
[...]
POINT_DATA 10728
SCALARS density float 1
LOOKUP_TABLE default
4428.094715
4433.104610
4424.109907
4427.507736
4434.780221
4425.442779
4424.656962
4430.038487
4437.153609
4419.431167
4429.513527
4404.289482
4422.724295
4432.808840
4423.430597
4434.686659
4439.240058
4438.221701
4445.533403
4442.644597
4425.899483
4428.014556
4406.295327
4444.282061
4430.188962
4410.753546
4436.344787
4445.342167
4412.614387
4447.249336
4423.092385
4413.303722
4425.250920
4428.602074
4425.757372
4429.082816
4430.251081
4429.982294
4439.818929
4422.629023
4403.478785
4427.783143
4453.039895
4409.419703
4425.712009
4421.427666
4414.585183
4422.214781
4419.238135
4423.972785
4453.232403
4440.205267
4425.319316
4420.677761
4430.966719
4395.534994
4428.621528
4405.656305
4427.796810
4467.131862
4418.147861
4434.798602
4401.102248
4405.593997
4424.334922
4433.374998
4440.159309
4420.466985
4425.637549
4404.499774
4450.137348
4399.104213
4478.041455
4385.293855
4447.962247
4397.620907
4439.266097
4448.932292
4442.989033
4409.382843
4429.497556
4408.791515
4463.093966
4425.806450
4398.631795
4409.112523
4421.944697
4444.969765
4399.461828
4418.392286
4451.222977
4422.005202
4433.442467
4433.500716
4457.329993
4418.710278
4426.338884
4439.699638
4436.645181
4418.916905
4434.470578
4447.865642
4448.443476
4392.213445
4470.210959
4377.805363
4512.411352
4406.182677
4437.294067
4393.564703
4411.496373
4441.476066
4456.438877
4460.579080
4428.779094
4417.235813
4407.812553
4444.149708
4431.863634
4452.476699
4405.422987
4455.115021
4427.007255
4453.272466
4430.593431
4353.522758
4493.336077
4457.268536
4435.114547
4433.073720
4448.003102
4431.336482
4403.234952
4459.780130
4444.618215
4434.903363
4473.856472
4372.677080
4472.397297
4436.412403
4419.199974
4435.466256
4443.474354
4443.165330
4460.179664
4427.537927
4424.100474
4444.126268
4459.982896
4412.021913
4424.790667
4421.104042
4432.019433
4420.342230
4406.726232
4454.669264
4457.120136
4408.037203
4358.782491
4420.859955
4432.595722
4428.709978
4423.804856
4417.522305
4429.709916
4422.585474
4462.979342
4354.437531
4441.410407
4467.880031
4402.062158
4428.194099
4432.069011
4437.713228
4395.661961
4406.351721
4465.814713
4428.511075
4402.379378
4410.593818
4452.735690
4417.787173
4451.021539
4450.132936
4441.755514
4452.884319
4414.799386
4414.434234
4455.243453
4418.139669
4450.518227
4415.693210
4427.645082
4427.141166
4430.522615
4434.768313
4431.095851
4414.511131
4397.265534
4456.390890
4443.610221
4415.314730
4459.070665
4422.507495
4420.829567
4433.871127
4442.202966
4406.413851
4412.882502
4453.378641
4449.334218
4422.931533
4449.947255
4458.926692
4428.681247
4459.281881
4430.601695
4406.409496
4420.077556
4460.055189
4431.782392
4373.909228
4446.792073
4433.823247
4433.264667
4415.844387
4432.281734
4434.643469
4443.451693
4443.578218
4448.576215
4439.161685
4425.479327
4424.426110
4409.261323
4444.806670
4422.487146
4421.569292
4424.247231
4415.175161
4451.842449
4460.693413
4437.535888
4408.672109
4410.838626
4431.373993
4442.845084
4412.777902
4397.740211
4458.714691
4447.108234
4456.633274
4448.196134
4453.136863
4405.343493
4422.420993
4429.876116
4428.172375
4402.808565
4444.931794
4436.115278
4423.176014
4444.502111
4409.507709
4448.634965
4439.869746
4431.529433
4417.915394
4429.953772
4454.829777
4388.327821
4438.081835
4400.072709
4433.399133
4417.716285
4446.004153
4433.249497
4401.024841
4436.345213
4413.863307
4428.785941
4423.926556
4391.263297
4448.451801
4396.243471
4404.768672
4424.288400
4436.185333
4435.480601
4418.582184
4420.500981
4418.785752
4403.506799
4414.890764
4448.093433
4415.812145
4445.578866
4423.909569
4468.032062
4435.181621
4435.884437
4437.569983
4397.648219
4459.622320
4407.160761
4428.334741
4411.752239
4447.778902
4424.454742
4442.724061
4465.588504
4394.466507
4440.177390
4451.242287
4454.857250
4445.122094
4432.285722
4429.848288
4437.714045
4426.271542
4430.763506
4430.737044
4419.305742
4455.406061
4453.495853
4471.279934
4415.987922
4372.969042
4381.580311
4420.892995
4522.273732
4409.109506
4437.651129
4444.635899
4372.186613
4461.017442
4445.188474
4400.760025
4422.461292
4467.632614
4437.850467
4428.379090
4426.833221
4435.857241
4395.825574
4463.180728
4435.698785
4447.750062
4390.151899
4419.097170
4426.180460
4428.207528
4433.992003
4432.013341
4445.631059
4389.078708
4453.996227
4455.471649
4421.874307
4456.348180
4477.878740
4362.387486
4411.698346
4396.313039
4432.583002
4427.802527
4418.226568
4406.897009
4463.339559
4433.894562
4401.357106
4434.985404
4415.454498
4446.110669
4421.715525
4431.793650
4408.889006
4439.472024
4465.169836
4419.750844
4427.343091
4439.704645
4432.269064
4422.863867
4422.326291
4430.966011
4408.034844
4379.891332
4429.488350
4434.059584
4404.999990
4431.840324
4435.850627
4429.637325
4437.080338
4429.365147
4410.825035
4431.471160
4421.461731
4371.151628
4391.008410
4453.267796
4422.639907
4437.217482
4441.076540
4422.256089
4460.908005
4454.945429
4406.826653
4427.612571
4415.971456
4420.535879
4425.310931
4426.583058
4439.262353
4434.065262
4440.623821
4415.753238
4440.550245
4431.708949
4458.379967
4462.933342
4435.147448
4379.167990
4463.646342
4380.539963
4469.758874
4425.879821
4416.683165
4431.189080
4393.108057
4421.224400
4413.110207
4391.384643
4455.183588
4436.255486
4383.588831
4442.009469
4455.140182
4447.087493
4413.358474
4416.740587
4455.058696
4428.793822
4433.287553
4441.013790
4412.923430
4434.742689
4435.116139
4418.975773
4390.522836
4449.690459
4436.504879
4417.373929
4420.788315
4441.536870
4411.783964
4403.011999
4437.696334
4456.576719
4424.640404
4426.164939
4430.231185
4482.902191
4462.483950
4425.902062
4438.301800
4460.648215
4362.655094
4430.637022
4442.208550
4399.067865
4442.586852
4411.130471
4434.660832
4419.743502
4413.305794
4415.659187
4436.640936
4431.779380
4435.526531
4428.074712
4476.893420
4402.259360
4426.839178
4405.799510
4456.433377
4454.864153
4466.187161
4356.452515
4394.617744
4455.103409
4434.230078
4415.428470
4428.794326
4451.230472
4445.942344
4442.659513
4401.386040
4449.793238
4402.917753
4404.346243
4422.702948
4443.945120
4392.084862
4438.024282
4391.635330
4439.331110
4424.495788
4427.053766
4436.230102
4421.062200
4419.027404
4433.028369
4441.358383
4439.196029
4411.989586
4473.751704
4372.631467
4478.528566
4442.287541
4491.689485
4405.770489
4430.790860
4426.967475
4422.855220
4434.708877
4433.918681
4463.160954
4430.978525
4429.869097
4452.712318
4426.032364
4434.748460
4448.398471
4428.444363
4438.015078
4389.435355
4426.953061
4445.508740
4418.524111
4449.072354
4425.267122
4442.041735
4439.268479
4437.927976
4406.757040
4417.153283
4415.101366
4457.051154
4419.962553
4410.030013
4414.998065
4388.995452
4441.871677
4470.993475
4430.930741
4434.280865
4442.145108
4441.585434
4470.317749
4437.487100
4471.052477
4473.940387
4404.616392
4434.821187
4432.926207
4457.004446
4427.643499
4445.981200
4432.451079
4399.388549
4446.880546
4431.751969
4422.458910
4424.834855
4419.137851
4424.915819
4412.052863
4459.394027
4408.331261
4441.682408
4431.944868
4431.261510
4450.429761
4409.618114
4392.893065
4430.716171
4415.797135
4418.725477
4426.529952
4432.770174
4434.017148
4402.771638
4449.901320
4434.113095
4434.494555
4449.616052
4418.860368
4413.372922
4417.309161
4447.791358
4444.309232
4438.728296
4441.493136
4415.200638
4433.948996
4428.803471
4442.306859
4413.574319
4451.218486
4448.186065
4403.338211
4418.858784
4429.695345
4426.361912
4436.739545
4440.840639
4431.972871
4431.779305
4429.175006
4439.531343
4441.407848
4454.386412
4449.738645
4446.132077
4423.518277
4419.780651
4483.010192
4418.296492
4436.078528
4425.742469
4449.685235
4400.672921
4404.187153
4429.194385
4414.175625
4446.247243
4431.273101
4432.327847
4427.461888
4419.000284
4446.856244
4417.186922
4399.428627
4442.328673
4447.995476
4404.055863
4453.953054
4490.939917
4395.693941
4500.513911
4431.506930
4415.085800
4431.863221
4468.742815
4442.195938
4430.352530
4369.836635
4410.711595
4422.985339
4450.740682
4465.595183
4449.517905
4449.354896
4433.652964
4456.074625
4439.812371
4447.582873
4425.352688
4413.652417
4427.757643
4433.336021
4421.088495
4416.305841
4441.380239
4439.331056
4423.153342
4438.508116
4435.137135
4441.696237
4384.696658
4436.453720
4433.558027
4431.173309
4427.981801
4429.804887
4443.565114
4453.355447
4426.178982
4421.293365
4463.734775
4420.190154
4351.582874
4425.328080
4411.149827
4461.840134
4436.946272
4428.907130
4392.158614
4442.096748
4408.865221
4445.869293
4436.357475
4415.088736
4413.923265
4421.118416
4418.102904
4421.941690
4430.999830
4423.610044
4403.355945
4438.106310
4394.821269
4386.974443
4467.011595
4428.154433
4420.696693
4401.700438
4450.392612
4455.594058
4430.375577
4441.476756
4437.895361
4447.565917
4396.143107
4368.001764
4437.978620
4363.467331
4381.746514
4451.733015
4425.474745
4445.814969
4409.800616
4422.745205
4418.408449
4437.132525
4436.163251
4433.903905
4448.360996
4446.392149
4440.958325
4408.918293
4430.649405
4468.941195
4446.460483
4427.375387
4427.794196
4429.361252
4451.910046
4405.864910
4391.939931
4371.122564
4447.052632
4410.551398
4461.866464
4406.914400
4434.610352
4440.306643
4456.583688
4467.396199
4474.136580
4448.720376
4418.573143
4439.770812
4421.070254
4457.676087
4418.575074
4425.311661
4429.700251
4429.462668
4429.550008
4429.470183
4429.213898
4429.173354
4429.118619
4429.584701
4430.136131
4430.908483
4431.110776
4431.087773
4430.667707
4430.271356
4426.801529
4429.288792
4429.258841
4429.850178
4430.629095
4431.562779
4432.432893
4432.801970
4432.568771
4431.188007
4430.119769
4429.518343
4429.849262
4430.630675
4430.729523
4427.852388
4429.084076
4429.198766
4429.038909
4428.868069
4427.814411
4427.427466
4426.841164
4427.643243
4429.069574
4430.864025
4431.255405
4430.588519
4430.205239
4428.442729
4428.343388
4429.021212
4429.287205
4429.405771
4430.513939
4431.349918
4432.552462
4433.072098
4432.600164
4431.026276
4429.140004
4428.421756
4428.564999
4428.598564
4429.973988
4428.741660
4429.095267
4429.272347
4429.037682
4428.558059
4427.622146
4426.891408
4426.085669
4427.061786
4428.196757
4430.573677
4430.429474
4430.812190
4428.257716
4429.039965
4428.782591
4429.173054
4429.222466
4429.227090
4430.459961
4430.972705
4432.490630
4432.673698
4432.525308
4430.399289
4428.931693
4427.645443
4428.256711
4428.221565
4428.624536
4428.846190
4429.066505
4429.390712
4428.910772
4428.420555
4427.504766
4426.546915
4425.904327
4426.437658
4428.213969
4429.700741
4430.682770
4429.279103
4428.150088
4428.066027
4428.796567
4429.191467
4429.096976
4429.238934
4430.160145
4430.948621
4432.107938
4432.620528
4432.236794
4430.134417
4428.923938
4427.277377
4428.887892
4428.011218
4428.870772
4428.506377
4429.124894
4429.253581
4428.651999
4428.580003
4427.017285
4426.789310
4425.203914
4426.644461
4427.501711
4430.058942
4430.378134
4430.846547
4429.432686
4431.573022
4428.723315
4429.045532
4429.064748
4429.080587
4430.009009
4430.819426
4431.743507
4432.574344
4431.898369
4430.083457
4428.634059
4427.414842
4429.019496
4429.185651
4430.096639
4428.541356
4429.195624
4429.040040
4428.824166
4428.070005
4427.239515
4426.205866
4425.280792
4426.129834
4427.485206
4429.313798
4430.441700
4428.933062
4428.681919
4426.782592
4428.525980
4429.115110
4428.730160
4429.003151
4429.768006
4430.604049
4431.426964
4432.575128
4431.646460
4429.980937
4428.252291
4426.948796
4427.882515
4427.320260
4428.515925
4428.503369
4429.014157
4429.090951
4428.695624
4427.898597
4427.144976
4426.168951
4425.076416
4425.981838
4427.131732
4429.071948
4430.068935
4429.914530
4427.904084
4430.755883
4442.882214
4442.129985
4438.708043
4434.486640
4411.882126
4459.394415
4432.988738
4417.140972
4394.992736
4445.165651
4461.876247
4398.578125
4427.048663
4463.579938
4424.394364
4428.154474
4428.379527
4428.803590
4428.812376
4428.402614
4429.985073
4430.032780
4431.562992
4432.217416
4431.684897
4429.415610
4428.323784
4426.406074
4428.327509
4429.186228
4430.159691
4440.413760
4423.997562
4418.403874
4394.075485
4403.646486
4441.087290
4433.324400
4385.521955
4403.560853
4431.296838
4436.268126
4428.370679
4428.873126
4451.872754
4422.380958
4401.798551
4428.071332
4428.823047
4429.140520
4428.273792
4428.111004
4426.555955
4426.626473
4424.386378
4426.123829
4426.325769
4428.863336
4429.442672
4429.188415
4428.219043
4430.003100
4439.738393
4441.698950
4421.994148
4414.996512
4406.240269
4447.768685
4417.391464
4408.905587
4405.335794
4421.098705
4445.081794
4417.400061
4431.959875
4434.312757
4455.237774
4433.477043
4428.231973
4428.701919
4428.491382
4428.348218
4429.472915
4430.090395
4430.955979
4432.386389
4431.053732
4429.391473
4427.604919
4425.888897
4427.566014
4426.055083
4429.836388
4417.924639
4398.610219
4408.872260
4384.317990
4397.219541
4451.176007
4425.951350
4440.026939
4441.809499
4448.849539
4390.880070
4444.214302
4373.492927
4393.876465
4438.655765
4449.187226
4427.895065
4428.801579
4429.047412
4428.012526
4428.106448
4426.382798
4426.582361
4424.337208
4425.716265
4426.025310
4428.341947
4428.594243
4428.148047
4425.373036
4424.945080
4435.026477
4454.509829
4443.694402
4451.301937
4441.425627
4430.261332
4440.747230
4425.155348
4409.485515
4423.603293
4384.389387
4436.038805
4419.643795
4443.124672
4429.563314
4421.419655
4427.838857
4428.728275
4428.087490
4428.441457
4429.055215
4430.192095
4430.654313
4432.355150
4431.030091
4429.106679
4427.179188
4425.828368
4426.240390
4425.973842
4424.090333
4418.485401
4404.077661
4436.372798
4398.996529
4482.189426
4387.888633
4433.781010
4437.313089
4424.624060
4396.041156
4381.942346
4404.122817
4419.592372
4396.125054
4442.978977
4419.586402
4428.086091
4428.836151
4428.935442
4428.245900
4427.846014
4426.763440
4426.326830
4424.699128
4425.239456
4426.205818
4427.678201
4428.599965
4426.958245
4426.191314
4426.085884
4451.720323
4430.189660
4447.045542
4405.778684
4363.643610
4447.079553
4434.990998
4436.187668
4426.158604
4422.664319
4389.466885
4459.903958
4460.551383
4428.720477
4471.401463
4394.603030
4427.831841
4428.447729
4428.266148
4427.870005
4429.344284
4429.714620
4430.655193
4432.305956
4431.091492
4429.051993
4427.374687
4425.754807
4427.209280
4426.602834
4427.534171
4434.624545
4403.972644
4426.829149
4431.683426
4418.878458
4471.413211
4402.162132
4421.817600
4426.825816
4417.512412
4446.264406
4378.872106
4464.210447
4410.723796
4437.730068
4437.201885
4428.026932
4428.510390
4429.202570
4428.075262
4428.088298
4426.262026
4427.142115
4423.945989
4426.108791
4425.361824
4428.262493
4428.729692
4428.017920
4427.595788
4428.683861
4436.843050
4390.437145
4400.573416
4420.544436
4446.986156
4438.010016
4430.513259
4427.905902
4376.475313
4450.096662
4422.365952
4406.164666
4453.586659
4422.751220
4419.362534
4402.596592
4427.886142
4428.125717
4428.515211
4427.089450
4429.699969
4429.110269
4430.694407
4432.109842
4431.193542
4428.780273
4427.922258
4425.472058
4428.651462
4427.018439
4428.479217
4427.535090
4436.777030
4449.323228
4450.421909
4378.001049
4421.039597
4429.984007
4446.813978
4416.186896
4438.895258
4418.382857
4439.411517
4367.912276
4465.850098
4382.776386
4441.873148
4427.838799
4428.440815
4429.177018
4428.108825
4427.969644
4426.131623
4427.298404
4423.913284
4426.033423
4425.143287
4428.042704
4428.632420
4428.202854
4426.583708
4430.535543
4437.572507
4448.644775
4444.470713
4451.274165
4458.551378
4430.857341
4442.611103
4454.640307
4393.187566
4461.942194
4424.471620
4450.251052
4457.690133
4401.690222
4397.973823
4387.175384
4427.880513
4428.273298
4427.977918
4427.249152
4428.916671
4429.364358
4430.123717
4432.090647
4431.139647
4428.846005
4427.573240
4425.435188
4427.717883
4426.607921
4425.338460
4413.312819
4432.483515
4416.772498
4405.820577
4417.284960
4417.379090
4433.176449
4449.176067
4434.741607
4405.249477
4461.828410
4401.581511
4428.269095
4414.614006
4428.633281
4456.596548
4427.614717
4428.670406
4429.006830
4427.971688
4428.103641
4426.355717
4427.070774
4424.819841
4425.469090
4425.387517
4427.296341
4428.409344
4426.109421
4426.545283
4425.504994
4423.385294
4442.880448
4423.012554
4420.794750
4410.830737
4437.892412
4436.462388
4434.665689
4407.119147
4409.994391
4414.531540
4451.990059
4428.338052
4411.216354
4521.348524
4446.716708
4427.585192
4428.826598
4426.932918
4428.107364
4427.807369
4430.433289
4429.134992
4432.806798
4430.604999
4429.543346
4426.347079
4426.114654
4426.614235
4425.954056
4427.327956
4426.811669
4462.662505
4383.972517
4462.173866
4432.076465
4419.071066
4426.234735
4420.100732
4425.357863
4428.081569
4428.428287
4431.734054
4437.375336
4438.028594
4413.518525
4453.318317
4427.413568
4429.216733
4428.440790
4428.955900
4427.289883
4427.533348
4425.791823
4425.798527
4424.676142
4425.435677
4426.703335
4427.913611
4426.226066
4426.844861
4424.441730
4434.232751
4430.560679
4421.348550
4410.658190
4449.586072
4437.402475
4427.608943
4449.173667
4422.632855
4438.005750
4388.150468
4423.342943
4425.314945
4417.167997
4395.215953
4399.136836
4427.598541
4428.447632
4427.292222
4427.127693
4428.607329
4429.272106
4429.532848
4432.627663
4430.711681
4429.696591
4426.555493
4426.464060
4425.447149
4427.462445
4424.894245
4416.688251
4432.013138
4432.096223
4417.690729
4379.671260
4439.114122
4435.601839
4425.040206
4422.371337
4473.394308
4426.401330
4429.863193
4431.463929
4421.142279
4396.987872
4433.045242
4427.887876
4428.564814
4429.293983
4428.690831
4427.564645
4427.330670
4426.967711
4425.007104
4426.424919
4424.689954
4426.797187
4427.693518
4427.446031
4425.766580
4427.046950
4428.629734
4418.584849
4412.551178
4452.222258
4399.911548
4432.854195
4431.697650
4437.272669
4449.390950
4443.812436
4440.362748
4417.298298
4424.366554
4445.086613
4454.938156
4421.385286
4427.813848
4427.941655
4427.631310
4426.071048
4428.869239
4427.906095
4430.399798
4431.597323
4430.625633
4428.905672
4427.648935
4423.881222
4427.042662
4424.806881
4426.196661
4436.117699
4419.316232
4420.786300
4442.762458
4383.624939
4413.059236
4442.188020
4420.153042
4471.869469
4454.034514
4446.043024
4383.351851
4454.970218
4447.492973
4411.975958
4433.764986
4427.678571
4427.747870
4430.014356
4426.919508
4428.820247
4425.286890
4428.393510
4422.866024
4427.317758
4422.975685
4426.370704
4427.560894
4426.151064
4423.825858
4428.730254
4440.429354
4452.516712
4425.137520
4459.645258
4371.550971
4435.066005
4438.017155
4438.896222
4434.540916
4464.521153
4443.129709
4451.608078
4410.628714
4432.945037
4383.009132
4425.108937
4427.427906
4428.182138
4427.071018
4426.543703
4427.594638
4428.974828
4429.722317
4432.198593
4431.055521
4430.323605
4427.443052
4424.668242
4425.044445
4424.005709
4424.772635
4442.210662
4406.703736
4415.754266
4365.535327
4423.815389
4446.286404
4497.183004
4441.345633
4435.222162
4439.786270
4404.688078
4429.041189
4399.327352
4434.276932
4406.080177
4440.481711
4427.227275
4429.127748
4428.136068
4429.217223
4427.649591
4427.818072
4427.004082
4426.474820
4425.967322
4424.499750
4426.388946
4426.634253
4426.009420
4425.123302
4423.421629
4442.420817
4462.724161
4449.549618
4425.953146
4451.664164
4419.644410
4418.092128
4473.012896
4386.386750
4436.800945
4431.382473
4400.648728
4445.018823
4408.011542
4550.360258
4414.378611
4427.008821
4428.510006
4426.955040
4426.591077
4427.504658
4429.572690
4428.037073
4433.326004
4429.740973
4429.910938
4425.431856
4426.483050
4423.360949
4425.009950
4423.770052
4447.622075
4409.916766
4445.052229
4444.470199
4470.878030
4451.925464
4437.757009
4437.836317
4443.471189
4425.902475
4442.632194
4452.995600
4469.249045
4423.414058
4296.334368
4436.710845
4427.579202
4429.515845
4428.347710
4430.337286
4426.601747
4428.368958
4425.407479
4426.386091
4423.460633
4424.949002
4423.472134
4425.477321
4424.332948
4424.949333
4417.851929
4422.470193
4468.275648
4421.295193
4429.532568
4438.534196
4413.744161
4444.008775
4443.173775
4439.049125
4410.268187
4414.010352
4458.885378
4449.412385
4394.754157
4374.404080
4400.467829