# vtk DataFile Version 2.0
mfree iwf
ASCII

DATASET UNSTRUCTURED_GRID
POINTS 11907 float
-0.000000 0.000445 0.000000
-0.000000 0.000450 0.000000
-0.000000 0.000455 0.000000
-0.000000 0.000460 0.000000
-0.000000 0.000465 0.000000
-0.000000 0.000470 0.000000
-0.000000 0.000475 0.000000
-0.000000 0.000480 0.000000
-0.000000 0.000485 0.000000
0.000000 0.000490 0.000000
-0.000000 0.000496 0.000000
0.000002 0.000500 0.000000
0.001320 0.001073 0.000000
0.001329 0.001070 0.000000
0.001370 0.001047 0.000000
0.001375 0.001044 0.000000
0.001374 0.001044 0.000000
0.001381 0.001040 0.000000
0.001387 0.001036 0.000000
0.001383 0.001039 0.000000
0.001395 0.001031 0.000000
0.001417 0.001015 0.000000
0.001421 0.001010 0.000000
0.001424 0.001006 0.000000
0.001426 0.001002 0.000000
0.001429 0.000998 0.000000
0.001432 0.000994 0.000000
0.001434 0.000989 0.000000
0.001436 0.000986 0.000000
0.001440 0.000980 0.000000
0.001444 0.000976 0.000000
0.001461 0.000962 0.000000
0.000005 0.000445 0.000000
0.000005 0.000450 0.000000
0.000005 0.000455 0.000000
0.000005 0.000460 0.000000
0.000005 0.000465 0.000000
0.000005 0.000470 0.000000
0.000005 0.000475 0.000000
0.000005 0.000480 0.000000
0.000005 0.000485 0.000000
0.000006 0.000489 0.000000
0.000003 0.000496 0.000000
0.000006 0.000498 0.000000
0.001366 0.001049 0.000000
0.001368 0.001039 0.000000
0.001400 0.001025 0.000000
0.001405 0.001021 0.000000
0.001409 0.001018 0.000000
0.001412 0.001015 0.000000
0.001413 0.001013 0.000000
0.001415 0.001009 0.000000
0.001418 0.001006 0.000000
0.001421 0.001001 0.000000
0.001426 0.000994 0.000000
0.001429 0.000990 0.000000
0.001432 0.000984 0.000000
0.001438 0.000976 0.000000
0.001439 0.000972 0.000000
0.001443 0.000969 0.000000
0.001453 0.000963 0.000000
0.001454 0.000962 0.000000
0.001450 0.000966 0.000000
0.001458 0.000960 0.000000
0.000010 0.000445 0.000000
0.000010 0.000450 0.000000
0.000010 0.000455 0.000000
0.000010 0.000460 0.000000
0.000010 0.000465 0.000000
0.000010 0.000469 0.000000
0.000010 0.000475 0.000000
0.000010 0.000479 0.000000
0.000009 0.000486 0.000000
0.000012 0.000489 0.000000
0.000008 0.000497 0.000000
0.000011 0.000498 0.000000
0.001364 0.001046 0.000000
0.001371 0.001037 0.000000
0.001386 0.001031 0.000000
0.001393 0.001028 0.000000
0.001397 0.001025 0.000000
0.001401 0.001022 0.000000
0.001391 0.001022 0.000000
0.001398 0.001017 0.000000
0.001403 0.001014 0.000000
0.001408 0.001010 0.000000
0.001416 0.001002 0.000000
0.001420 0.000997 0.000000
0.001419 0.000991 0.000000
0.001422 0.000988 0.000000
0.001427 0.000986 0.000000
0.001434 0.000979 0.000000
0.001445 0.000966 0.000000
0.001447 0.000964 0.000000
0.001450 0.000958 0.000000
0.001451 0.000952 0.000000
0.000015 0.000445 0.000000
0.000016 0.000450 0.000000
0.000014 0.000456 0.000000
0.000017 0.000460 0.000000
0.000014 0.000469 0.000000
0.000016 0.000465 0.000000
0.000014 0.000476 0.000000
0.000017 0.000480 0.000000
0.000014 0.000484 0.000000
0.000016 0.000489 0.000000
0.000014 0.000495 0.000000
0.000016 0.000497 0.000000
0.000025 0.000500 0.000000
0.001374 0.001037 0.000000
0.001388 0.001029 0.000000
0.001382 0.001027 0.000000
0.001394 0.001019 0.000000
0.001405 0.001019 0.000000
0.001404 0.001010 0.000000
0.001411 0.001005 0.000000
0.001407 0.001003 0.000000
0.001412 0.001000 0.000000
0.001418 0.000985 0.000000
0.001423 0.000994 0.000000
0.001426 0.000979 0.000000
0.001430 0.000979 0.000000
0.001430 0.000974 0.000000
0.001434 0.000972 0.000000
0.001437 0.000966 0.000000
0.001441 0.000963 0.000000
0.001443 0.000959 0.000000
0.001449 0.000950 0.000000
0.000019 0.000445 0.000000
0.000021 0.000450 0.000000
0.000018 0.000455 0.000000
0.000022 0.000459 0.000000
0.000019 0.000469 0.000000
0.000024 0.000467 0.000000
0.000018 0.000475 0.000000
0.000022 0.000479 0.000000
0.000019 0.000486 0.000000
0.000021 0.000490 0.000000
0.000020 0.000497 0.000000
0.000022 0.000499 0.000000
0.000039 0.000500 0.000000
0.001368 0.001026 0.000000
0.001376 0.001030 0.000000
0.001383 0.001022 0.000000
0.001388 0.001025 0.000000
0.001397 0.001012 0.000000
0.001395 0.001008 0.000000
0.001406 0.001000 0.000000
0.001398 0.001006 0.000000
0.001409 0.000995 0.000000
0.001407 0.000986 0.000000
0.001411 0.000981 0.000000
0.001416 0.000979 0.000000
0.001424 0.000974 0.000000
0.001428 0.000964 0.000000
0.001435 0.000963 0.000000
0.001436 0.000959 0.000000
0.001443 0.000953 0.000000
0.001447 0.000955 0.000000
0.001445 0.000947 0.000000
0.000024 0.000445 0.000000
0.000026 0.000450 0.000000
0.000024 0.000455 0.000000
0.000026 0.000461 0.000000
0.000021 0.000464 0.000000
0.000026 0.000473 0.000000
0.000022 0.000476 0.000000
0.000027 0.000481 0.000000
0.000023 0.000485 0.000000
0.000026 0.000488 0.000000
0.000026 0.000492 0.000000
0.000027 0.000500 0.000000
0.001348 0.001060 0.000000
0.001376 0.001033 0.000000
0.001381 0.001032 0.000000
0.001392 0.001014 0.000000
0.001388 0.001017 0.000000
0.001403 0.001007 0.000000
0.001400 0.001000 0.000000
0.001390 0.001010 0.000000
0.001396 0.000997 0.000000
0.001415 0.000996 0.000000
0.001412 0.000989 0.000000
0.001413 0.000991 0.000000
0.001422 0.000983 0.000000
0.001422 0.000977 0.000000
0.001431 0.000967 0.000000
0.001427 0.000969 0.000000
0.001439 0.000956 0.000000
0.001431 0.000959 0.000000
0.001439 0.000950 0.000000
0.001440 0.000944 0.000000
0.000030 0.000445 0.000000
0.000031 0.000450 0.000000
0.000029 0.000455 0.000000
0.000031 0.000459 0.000000
0.000031 0.000465 0.000000
0.000028 0.000468 0.000000
0.000031 0.000472 0.000000
0.000030 0.000477 0.000000
0.000030 0.000486 0.000000
0.000031 0.000491 0.000000
0.000033 0.000497 0.000000
0.000030 0.000499 0.000000
0.000048 0.000500 0.000000
0.001366 0.001034 0.000000
0.001376 0.001020 0.000000
0.001384 0.001017 0.000000
0.001381 0.001017 0.000000
0.001386 0.001012 0.000000
0.001391 0.001000 0.000000
0.001403 0.000988 0.000000
0.001404 0.000996 0.000000
0.001405 0.000991 0.000000
0.001413 0.000984 0.000000
0.001414 0.000971 0.000000
0.001418 0.000975 0.000000
0.001419 0.000970 0.000000
0.001422 0.000961 0.000000
0.001424 0.000967 0.000000
0.001429 0.000954 0.000000
0.001434 0.000953 0.000000
0.001436 0.000948 0.000000
0.001437 0.000941 0.000000
0.000035 0.000445 0.000000
0.000035 0.000450 0.000000
0.000034 0.000457 0.000000
0.000038 0.000454 0.000000
0.000035 0.000467 0.000000
0.000036 0.000472 0.000000
0.000032 0.000479 0.000000
0.000041 0.000479 0.000000
0.000034 0.000483 0.000000
0.000034 0.000488 0.000000
0.000037 0.000491 0.000000
0.000036 0.000498 0.000000
0.001308 0.001074 0.000000
0.001343 0.001063 0.000000
0.001373 0.001025 0.000000
0.001376 0.001015 0.000000
0.001388 0.001005 0.000000
0.001377 0.001005 0.000000
0.001395 0.001002 0.000000
0.001392 0.000995 0.000000
0.001400 0.000993 0.000000
0.001390 0.000987 0.000000
0.001397 0.000978 0.000000
0.001408 0.000973 0.000000
0.001413 0.000975 0.000000
0.001416 0.000966 0.000000
0.001426 0.000958 0.000000
0.001416 0.000952 0.000000
0.001428 0.000947 0.000000
0.001430 0.000950 0.000000
0.001433 0.000945 0.000000
0.001433 0.000938 0.000000
0.000040 0.000445 0.000000
0.000041 0.000450 0.000000
0.000036 0.000461 0.000000
0.000040 0.000458 0.000000
0.000041 0.000463 0.000000
0.000039 0.000468 0.000000
0.000041 0.000473 0.000000
0.000037 0.000477 0.000000
0.000041 0.000488 0.000000
0.000042 0.000491 0.000000
0.000041 0.000497 0.000000
0.000044 0.000498 0.000000
0.001153 0.001053 0.000000
0.001364 0.001041 0.000000
0.001365 0.001030 0.000000
0.001370 0.001012 0.000000
0.001384 0.001008 0.000000
0.001383 0.001003 0.000000
0.001386 0.001001 0.000000
0.001396 0.000990 0.000000
0.001400 0.000982 0.000000
0.001406 0.000982 0.000000
0.001398 0.000986 0.000000
0.001398 0.000967 0.000000
0.001406 0.000964 0.000000
0.001412 0.000960 0.000000
0.001418 0.000964 0.000000
0.001417 0.000959 0.000000
0.001422 0.000955 0.000000
0.001424 0.000950 0.000000
0.001429 0.000942 0.000000
0.001429 0.000936 0.000000
0.000044 0.000445 0.000000
0.000046 0.000450 0.000000
0.000045 0.000455 0.000000
0.000046 0.000461 0.000000
0.000044 0.000467 0.000000
0.000047 0.000474 0.000000
0.000045 0.000478 0.000000
0.000039 0.000483 0.000000
0.000052 0.000485 0.000000
0.000045 0.000483 0.000000
0.000048 0.000493 0.000000
0.000050 0.000498 0.000000
0.001160 0.001056 0.000000
0.001362 0.001051 0.000000
0.001378 0.001024 0.000000
0.001380 0.001010 0.000000
0.001376 0.001008 0.000000
0.001387 0.000995 0.000000
0.001383 0.000992 0.000000
0.001391 0.000991 0.000000
0.001390 0.000981 0.000000
0.001401 0.000977 0.000000
0.001407 0.000977 0.000000
0.001411 0.000965 0.000000
0.001403 0.000969 0.000000
0.001410 0.000958 0.000000
0.001419 0.000955 0.000000
0.001419 0.000948 0.000000
0.001419 0.000944 0.000000
0.001423 0.000943 0.000000
0.001425 0.000939 0.000000
0.001425 0.000933 0.000000
0.000049 0.000445 0.000000
0.000053 0.000450 0.000000
0.000049 0.000454 0.000000
0.000053 0.000455 0.000000
0.000048 0.000465 0.000000
0.000049 0.000471 0.000000
0.000053 0.000468 0.000000
0.000051 0.000478 0.000000
0.000047 0.000488 0.000000
0.000052 0.000491 0.000000
0.000057 0.000492 0.000000
0.000053 0.000498 0.000000
0.001251 0.001078 0.000000
0.001353 0.001050 0.000000
0.001361 0.001038 0.000000
0.001371 0.001015 0.000000
0.001377 0.001001 0.000000
0.001382 0.000998 0.000000
0.001377 0.000996 0.000000
0.001381 0.000992 0.000000
0.001386 0.000981 0.000000
0.001394 0.000983 0.000000
0.001390 0.000977 0.000000
0.001399 0.000972 0.000000
0.001397 0.000961 0.000000
0.001407 0.000970 0.000000
0.001407 0.000954 0.000000
0.001407 0.000946 0.000000
0.001411 0.000952 0.000000
0.001416 0.000941 0.000000
0.001421 0.000936 0.000000
0.001421 0.000930 0.000000
0.000053 0.000445 0.000000
0.000058 0.000451 0.000000
0.000055 0.000462 0.000000
0.000050 0.000460 0.000000
0.000060 0.000466 0.000000
0.000054 0.000473 0.000000
0.000057 0.000476 0.000000
0.000057 0.000480 0.000000
0.000052 0.000483 0.000000
0.000057 0.000486 0.000000
0.000056 0.000497 0.000000
0.000059 0.000496 0.000000
0.001274 0.001077 0.000000
0.001361 0.001052 0.000000
[...]
POINT_DATA 11907
SCALARS density float 1
LOOKUP_TABLE default
4427.385324
4430.132664
4425.852302
4429.264548
4431.980660
4426.702980
4436.642881
4428.565355
4431.296647
4419.443686
4429.780079
4406.362182
4429.091358
4418.628790
4415.361612
4442.626525
4440.371301
4437.301160
4451.562406
4452.990684
4426.326027
4418.789340
4400.978374
4444.811899
4423.949890
4431.764195
4450.387536
4420.847925
4435.420741
4448.187819
4426.444852
4404.744606
4431.800494
4432.151248
4430.036440
4425.467397
4431.851559
4420.557294
4425.420191
4421.376872
4423.293796
4432.313030
4447.785652
4409.026834
4412.776575
4424.131441
4421.032617
4414.526238
4422.099076
4430.748213
4444.161301
4463.573631
4436.398605
4423.351894
4425.470315
4389.666390
4431.399916
4401.687586
4438.279747
4458.354994
4431.485735
4434.753434
4408.661931
4398.357873
4420.328130
4425.705807
4432.772400
4422.105559
4432.550044
4424.330380
4456.299523
4399.541667
4466.238446
4383.753415
4447.585735
4403.289390
4464.972764
4446.525642
4431.747279
4396.673180
4417.652576
4411.169187
4472.599327
4454.640328
4433.134918
4392.192644
4427.859776
4426.742286
4399.626751
4464.707931
4427.132407
4382.070814
4421.533017
4423.360734
4446.374095
4415.210717
4424.884502
4438.085482
4445.925521
4417.737032
4417.345092
4448.008876
4448.913213
4390.919430
4464.054379
4388.194877
4507.475882
4406.446224
4434.474621
4384.199879
4409.891907
4472.824811
4447.499002
4435.206734
4443.874163
4373.959808
4433.636018
4422.183853
4395.734707
4434.786916
4409.910442
4474.055038
4430.156201
4475.519879
4432.332631
4369.410375
4490.401944
4438.409146
4436.392242
4421.569670
4439.043681
4433.270746
4408.549226
4431.353869
4435.323444
4435.318187
4478.898819
4373.742398
4460.570788
4432.891448
4417.177793
4440.218177
4473.043711
4380.159000
4467.172756
4396.392280
4442.490190
4444.474912
4436.842928
4381.613433
4401.687956
4446.797628
4427.208318
4419.156612
4443.004153
4478.564704
4437.286259
4412.240511
4392.743384
4421.584776
4432.980848
4432.469063
4442.417858
4412.733991
4440.300774
4419.966818
4453.165065
4384.271228
4417.600074
4461.912857
4427.132281
4423.087999
4434.568698
4433.917858
4367.879369
4436.765175
4392.015124
4451.871029
4381.636702
4461.651909
4472.780018
4457.966223
4445.912823
4456.766400
4442.737488
4448.541203
4369.372710
4435.857375
4422.966750
4390.344161
4462.577808
4426.504514
4424.294398
4431.198110
4415.307908
4439.957905
4434.209364
4450.198918
4399.792640
4450.563037
4446.688729
4406.806456
4451.050954
4418.225518
4417.119116
4446.175313
4468.886324
4470.104893
4425.242124
4434.210714
4412.302429
4434.333229
4455.103734
4448.450463
4441.594221
4434.794874
4463.920599
4376.144442
4395.661869
4451.726678
4454.949372
4410.618617
4413.002568
4446.673789
4425.323085
4435.234605
4442.897263
4428.889358
4424.408694
4437.218303
4439.173488
4429.968572
4402.947207
4429.346852
4421.687547
4444.098935
4417.636959
4426.626732
4383.550736
4390.534291
4428.743108
4489.603513
4443.123900
4447.151141
4403.584536
4451.588658
4424.476339
4447.116395
4382.621403
4464.405566
4438.592555
4411.335943
4464.903862
4420.994431
4409.432629
4411.862716
4430.873624
4424.418552
4415.572590
4434.931501
4429.506624
4440.247531
4426.409496
4429.086357
4447.495374
4427.177266
4436.253868
4422.886551
4435.422273
4451.572511
4399.532728
4443.986462
4401.948504
4452.447748
4459.305758
4427.721381
4442.435396
4420.015371
4439.683701
4431.239406
4403.720625
4436.030522
4434.418433
4416.494295
4464.421929
4355.932244
4442.764518
4431.136143
4432.539968
4415.755047
4422.598513
4451.280148
4418.772128
4440.348546
4434.841448
4431.070136
4456.242851
4420.212554
4469.827230
4432.530818
4434.351967
4436.576475
4395.663215
4435.346876
4422.510244
4396.023500
4460.271578
4444.186029
4455.422432
4436.912386
4424.313678
4422.014121
4424.762662
4445.035450
4432.846571
4467.093412
4435.298460
4426.066658
4414.188258
4451.678100
4426.579765
4414.781248
4459.309923
4411.659060
4431.193705
4454.985507
4396.298038
4384.387281
4394.268458
4424.456935
4518.015177
4412.042295
4441.574205
4432.453680
4402.032908
4457.916907
4351.501161
4420.725844
4427.640920
4432.531598
4413.030910
4396.164319
4422.472505
4415.815295
4398.935568
4436.181795
4414.296826
4432.226999
4419.427447
4428.834486
4410.108422
4420.923254
4438.988225
4426.218304
4484.063298
4403.766155
4406.842034
4444.415948
4426.664522
4422.370219
4469.539861
4350.173264
4416.429928
4403.529854
4436.136539
4428.503440
4439.636479
4415.045786
4418.186652
4477.894008
4371.648535
4417.332393
4442.032461
4421.468978
4432.080557
4443.069724
4462.579036
4431.634979
4477.526310
4394.320417
4440.150087
4440.385663
4441.870196
4418.652936
4419.127385
4405.745859
4456.962588
4417.554708
4374.293074
4446.083123
4432.298844
4384.669244
4440.075684
4422.101173
4444.626679
4435.767565
4424.011743
4431.457473
4418.707600
4379.658885
4397.950033
4455.128657
4445.001068
4479.157310
4438.321862
4431.832356
4426.713851
4439.225865
4441.355306
4447.590829
4447.592384
4403.693796
4433.957253
4399.480233
4441.958257
4438.762302
4445.047438
4434.824557
4440.651159
4441.988868
4450.240398
4425.484385
4397.707260
4465.434941
4479.171811
4410.952083
4424.060069
4439.856468
4419.124894
4429.474441
4391.043612
4376.162670
4443.734788
4386.134182
4432.159820
4389.859822
4445.598427
4433.822570
4469.759106
4415.089757
4445.593185
4446.454874
4416.725438
4407.432516
4448.244726
4448.364306
4414.509735
4419.614953
4416.982960
4441.782033
4440.126624
4460.109893
4397.462343
4397.940725
4395.797077
4435.471608
4384.579088
4444.923142
4436.376758
4455.355383
4428.602282
4439.695062
4422.719537
4463.416337
4430.572245
4409.648325
4432.809221
4454.590018
4392.486404
4432.333621
4430.504883
4419.933188
4459.294859
4425.137035
4441.364466
4429.241851
4430.187659
4409.999213
4443.552276
4433.802759
4431.584529
4437.002299
4406.823642
4450.830511
4410.465743
4458.831702
4452.242111
4444.680767
4445.354045
4380.341876
4395.235312
4452.723544
4426.923628
4430.386498
4431.775569
4442.194366
4448.712970
4447.661126
4419.785315
4452.912376
4389.684977
4408.435589
4420.361201
4416.163490
4393.186253
4430.702119
4414.373179
4433.703544
4447.694050
4395.832014
4443.142554
4422.335922
4428.965379
4435.216496
4434.825352
4407.011512
4455.220737
4382.498413
4444.031016
4449.788224
4420.003179
4375.484948
4416.719164
4425.630096
4422.899629
4424.037911
4432.759786
4440.062683
4465.428992
4404.658459
4417.468799
4415.298668
4427.824961
4451.738159
4398.232348
4481.502884
4413.486758
4418.123784
4450.522800
4394.237318
4434.975034
4448.230705
4424.194419
4441.251928
4438.115918
4422.368724
4442.199641
4423.014107
4461.265742
4392.393513
4432.102837
4441.812972
4378.004094
4507.455094
4435.909368
4454.354389
4429.044025
4428.865585
4444.350128
4437.433659
4475.508196
4419.392828
4483.566673
4486.726600
4443.158170
4448.114624
4417.998729
4414.331675
4437.247661
4397.089904
4405.458694
4450.222066
4438.526499
4424.403844
4432.737923
4423.644454
4405.952554
4422.296395
4443.647403
4428.228996
4455.502107
4463.292527
4460.367116
4455.314790
4443.749925
4439.971123
4404.381127
4425.525219
4420.666178
4424.700773
4427.979879
4449.601328
4420.420478
4441.137288
4431.955661
4440.708752
4418.424479
4452.081508
4451.670650
4381.331326
4444.732445
4443.252920
4441.586088
4432.388063
4423.445589
4415.569285
4431.033106
4428.944085
4456.841087
4408.551820
4423.200511
4428.644445
4413.974844
4394.849838
4435.195399
4435.272828
4444.358981
4424.570540
4426.106683
4435.900123
4417.219990
4441.713686
4443.869096
4477.606050
4435.948826
4467.013048
4439.449175
4407.833090
4474.881525
4431.260233
4394.031659
4413.979134
4399.324531
4406.237214
4439.183647
4421.545440
4431.484793
4444.476319
4441.676348
4437.873039
4433.033410
4439.268002
4439.208782
4421.502577
4432.058337
4439.537200
4387.157197
4403.168268
4461.083100
4458.048590
4402.029897
4491.715079
4425.258906
4408.838878
4405.318799
4470.170378
4438.295998
4426.160878
4361.156239
4436.887518
4401.611114
4436.949424
4475.341161
4423.660621
4471.411286
4460.671735
4443.666506
4413.729573
4443.571011
4404.178514
4418.019512
4434.900558
4445.858024
4428.602515
4451.211304
4415.757244
4433.215399
4401.642609
4441.988878
4424.854632
4443.629507
4376.109029
4431.860735
4432.505919
4437.895455
4419.156763
4434.710305
4437.698563
4446.560264
4426.517873
4447.585194
4430.175832
4427.546786
4355.167399
4466.746659
4443.137470
4433.387830
4428.161969
4404.755288
4449.731549
4397.672279
4445.944766
4433.206380
4438.324888
4407.288033
4438.240445
4406.290397
4426.021319
4455.652350
4420.286967
4440.483852
4459.789486
4434.076149
4420.282866
4409.686540
4451.946135
4432.452791
4465.261796
4400.865448
4446.818568
4433.203829
4439.260271
4427.876248
4440.750035
4442.210094
4404.826776
4350.991578
4488.114332
4431.647280
4415.995010
4396.009751
4427.528955
4437.397884
4441.541485
4414.029684
4423.436712
4439.072616
4426.011214
4439.134380
4409.490239
4408.687592
4418.263433
4412.314649
4402.323384
4411.156283
4440.032842
4433.026612
4423.933329
4451.735409
4432.277492
4428.881703
4404.685804
4361.876074
4390.195270
4424.804413
4382.548416
4371.484476
4451.973253
4439.845321
4381.438823
4441.919089
4430.560976
4421.501755
4428.683330
4417.584655
4450.883937
4440.991941
4424.388375
4428.753821
4430.502833
4430.791883
4430.976130
4430.844697
4430.312442
4429.898102
4429.470979
4429.597253
4430.270201
4431.461684
4431.967322
4431.632500
4431.247153
4430.686171
4429.516705
4430.223461
4429.161961
4428.873378
4429.544046
4430.686533
4432.205902
4433.262563
4433.601739
4432.216047
4429.673103
4428.311191
4428.959808
4430.353719
4430.808247
4429.708952
4430.210613
4431.431961
4432.024495
4431.678327
4430.288911
4428.881477
4427.483058
4427.339748
4428.646963
4431.957333
4433.502823
4432.083001
4430.469683
4428.922531
4430.251191
4430.029743
4428.823947
4428.296582
4428.734252
4430.312793
4431.738160
4433.632168
4433.580082
4432.448350
4428.880997
4426.824335
4427.226437
4428.854200
4429.021684
4430.070401
4429.899926
4431.433751
4432.001711
4431.599341
4430.086644
4428.584853
4426.683740
4426.663159
4427.881071
4431.243247
4433.304126
4432.294307
4429.624665
4429.976187
4430.072856
4429.701872
4429.008738
4427.440501
4429.005172
4429.403049
4431.950914
4432.650726
4434.043858
4431.037018
4429.609295
4425.503558
4428.180417
4428.499747
4429.579981
4429.855395
4429.719018
4431.360183
4431.761954
4431.506356
4429.684083
4428.378537
4426.260526
4426.300106
4427.648270
4430.558016
4433.026940
4431.854291
4428.953576
4428.966923
4429.827906
4429.755591
4428.607492
4427.639391
4428.235247
4429.752621
4431.054330
4432.988648
4433.078343
4431.416797
4428.688485
4425.586675
4426.818227
4428.016734
4429.104083
4429.226051
4429.904318
4430.800415
4431.767516
4431.258422
4429.475840
4428.105466
4425.966531
4426.155125
4427.126603
4430.462786
4432.729276
4431.914089
4429.695828
4429.917753
4429.608999
4429.576510
4428.473237
4427.369712
4428.122387
4429.372323
4430.994377
4432.515603
4432.850454
4431.059802
4428.511765
4425.388346
4427.239926
4427.841764
4430.171032
4429.153859
4429.638600
4430.850558
4431.503755
4430.955380
4429.462248
4427.502015
4426.072593
4425.908110
4426.833353
4430.059138
4432.472653
4431.163378
4428.111276
4424.749870
4429.375140
4429.577476
4428.145712
4427.191991
4427.895902
4428.987042
4430.928684
4432.204000
4432.568771
4430.968555
4428.064838
4425.420575
4425.840272
4427.686786
4429.306154
4428.965991
4429.476434
4430.653116
4431.365209
4430.627925
4429.339430
4427.291772
4425.851770
4425.929838
4426.623909
4429.769918
4432.734190
4431.992880
4429.066270
4429.071936
4471.197678
4436.916171
4432.447092
4437.626950
4442.600013
4461.922277
4429.585925
4410.374348
4405.309558
4455.526974
4475.712296
4394.075304
4466.617062
4486.485742
4429.515011
4415.305030
4429.080422
4429.397113
4428.119426
4426.700258
4427.881228
4428.667208
4430.700600
4432.090192
4432.104766
4430.609908
4428.736665
4424.707747
4428.084266
4429.503067
4432.700515
4405.345894
4450.156613
4440.049433
4421.115076
4421.979306
4441.405926
4436.479278
4444.778984
4398.355092
4392.316490
4436.725236
4415.506361
4437.312642
4360.139844
4470.924043
4408.279630
4428.515480
4429.308400
4430.411414
4431.077221
4430.626722
4428.785161
4427.617846
4425.109284
4426.479705
4426.139044
4429.380124
4432.977366
4431.072783
4428.815635
4429.262819
4454.915324
4423.772401
4408.687357
4435.899286
4396.810039
4444.450328
4410.354053
4437.301372
4420.010111
4440.883019
4458.383415
4420.249073
4417.574614
4461.270835
4420.080828
4414.426104
4428.842207
4429.343341
4427.886051
4426.608465
4427.521776
4428.924040
4430.040666
4432.357282
4430.940804
4430.899276
4428.309751
4424.108121
4427.373432
4426.669239
4429.217437
4409.216367
4444.543819
4432.633339
4414.078414
4407.144350
4442.472943
4435.748656
4415.614842
4415.224907
4417.860917
4438.304687
4442.428093
4407.822456
4411.157946
4440.256329
4450.995164
4428.416841
4429.409532
4430.003916
4431.155773
4430.343749
4428.896095
4427.294803
4425.194022
4426.214833
4425.757271
4428.906539
4432.862143
4429.621815
4427.421787
4427.592840
4439.326029
4454.464922
4438.741417
4459.112186
4427.557139
4438.262475
4437.792233
4476.793016
4429.380409
4449.810466
4390.741288
4421.592436
4473.834886
4419.431235
4435.665661
4418.929740
4428.449544
4429.298048
4427.665749
4426.721266
4427.181540
4429.108388
4429.882978
4432.156808
4430.660338
4430.619770
4428.017005
4424.044363
4426.966267
4427.075427
4424.816041
4429.664272
4442.981036
4444.065940
4401.109055
4479.470038
4399.291326
4421.847072
4455.035752
4470.324265
4399.513242
4423.582635
4465.665892
4426.292708
4420.097499
4453.063775
4421.788917
4428.463548
4429.549271
4429.680733
4431.249170
4430.033207
4429.154721
4426.691649
4425.930979
4425.707368
4426.166492
4428.225790
4433.304128
4428.527791
4428.721076
4428.379054
4426.852402
4401.474772
4445.305795
4418.998185
4338.256673
4436.011502
4424.710705
4423.926691
4425.516354
4440.312500
4429.722465
4440.196518
4446.832697
4412.925540
4471.752413
4419.267179
4428.259822
4429.276623
4427.422506
4426.767809
4426.842445
4429.020071
4429.711846
4432.109538
4430.455189
4430.764037
4427.998067
4424.531475
4427.482215
4427.611086
4426.325477
4425.273010
4411.500632
4376.508718
4384.527112
4395.327896
4480.391790
4434.924659
4423.737425
4418.028205
4445.758243
4436.566071
4397.619868
4426.977697
4371.898963
4458.160042
4413.935954
4428.307086
4429.221264
4429.815025
4430.733076
4430.312438
4428.496279
4427.111943
4425.622848
4426.724151
4425.550092
4428.923396
4433.081098
4430.021903
4429.155629
4429.317608
4429.159614
4447.914781
4394.987725
4418.566697
4444.872069
4434.588048
4433.834028
4425.786216
4486.792368
4463.887386
4376.544016
4377.973622
4445.134632
4398.368846
4444.927926
4409.064326
4428.262562
4428.836793
4427.764833
4426.252643
4427.221550
4428.392795
4429.986094
4431.633296
4430.705054
4430.431389
4428.324475
4424.774509
4428.182301
4427.331000
4429.143561
4443.307888
4430.880968
4430.669220
4443.626072
4380.328974
4416.732456
4429.430663
4439.553787
4383.592841
4440.207440
4447.654086
4502.278565
4405.118005
4396.879650
4428.425635
4442.693445
4428.186831
4429.110388
4429.660155
4430.611036
4430.273896
4428.331563
4427.052004
4426.000174
4426.898233
4425.436106
4428.502687
4432.974417
4430.098909
4429.207879
4428.149276
4421.507073
4445.472804
4405.499710
4444.240168
4450.878298
4434.412277
4453.658362
4474.902967
4422.636459
4430.572917
4411.138843
4430.386144
4466.035751
4404.853880
4464.412294
4407.398001
4428.134515
4429.039078
4427.380276
4426.786856
4426.532397
4428.977622
4429.266598
4431.777339
4430.344917
4430.341069
4427.665410
4424.764764
4426.130005
4426.587112
4424.968443
4429.868549
4478.942188
4449.457489
4371.929501
4450.779623
4430.706243
4445.714967
4413.538813
4468.278526
4446.469465
4412.603640
4415.942818
4450.261942
4418.256247
4406.476833
4420.120793
4428.043002
4429.402213
4429.121451
4430.925805
4430.176865
4428.353017
4426.936529
4426.618914
4426.460840
4425.642432
4427.573489
4432.501033
4428.493420
4427.572889
4425.452005
4428.777353
4415.057054
4432.464152
4450.468781
4413.978079
4445.547051
4447.647096
4432.090518
4436.453129
4443.457511
4435.508464
4409.285516
4412.667532
4377.436557
4467.029600
4444.416218
4427.949429
4429.167179
4427.280779
4426.987369
4426.323033
4429.287971
4428.983857
4431.771502
4429.980924
4430.190347
4427.272293
4424.869990
4425.612870
4425.830453
4426.586051
4406.726187
4446.507709
4400.264263
4439.831141
4449.281533
4429.661042
4429.886504
4425.446454
4409.705217
4446.316975
4433.367678
4411.890848
4393.373599
4426.935811
4389.029313
4447.628268
4427.913433
4429.494459
4428.935969
4431.174624
4429.856448
4428.425549
4426.735794
4427.146532
4426.410784
4425.912162
4427.339195
4432.105054
4428.756459
4427.326207
4425.301445
4434.115403
4421.795429
4411.073365
4442.034206
4387.723032
4408.982017
4423.963424
4447.633812
4438.351270
4427.959895
4433.129146
4402.982957
4443.902702
4473.179115
4416.596706
4401.540605
4428.159853
4429.058426
4427.545013
4426.689708
4426.769228
4428.605105
4429.233957
4431.943351
4429.834261
4430.245534
4427.568952
4425.346482
4425.662013
4425.897620
4424.935503
4418.857033
4409.519452
4436.818137
4405.512794
4414.785630
4441.099371
4422.246155
4429.885766
4419.800857
4449.982416
4499.325258
4400.937334
4455.473177
4426.302547
4450.002526
4427.535761
4428.118627
4429.217905
4429.321018
4430.872224
4429.813009
4428.347905
4427.060660
4426.948995
4427.526896
4425.764258
4427.132331
4432.516884
4429.478639
4427.738175
4426.568136
4437.337249
4422.753927
4441.314909
4442.615334
4391.625639
4431.685502
4450.008804
4432.579793
4454.773781
4414.529149
4475.616044
4442.917845
4416.541162
4439.126085
4400.131798
4424.521807
4428.497688
4429.156018
4427.593173
4426.837275
4426.686240
4428.480646
4429.280420
4431.873056
4430.122301
4429.834210
4428.312007
4425.043705
4426.603619
4425.596376
4426.406930
4445.307392
4454.624224
4431.929345
4451.073606
4381.817485
4418.051542
4442.210621
4383.878728
4460.050620
4442.615585
4445.369615
4465.961060
4446.036448
4425.552047
4414.126882
4411.860946
4428.277734
4428.961209
4429.510515
4430.399713
4430.576732
4427.522942
4427.868786
4426.814980
4428.140997
4425.273847
4427.381795
4433.004745
4428.482673
4427.080253
4426.683490
4445.447750
4446.657197
4396.212846
4465.157936
4387.989932
4436.387899
4438.205850
4427.199464
4464.742576
4449.126531
4469.486190
4409.880621
4408.444163
4459.318253
4366.796927
4429.116105
4428.393721
4429.535435
4427.478772
4427.314366
4426.162462
4429.626895
4428.741550
4431.838679
4430.810768
4430.141330
4427.587842
4425.836881
4425.440149
4424.923912
4424.782203
4425.889336
4432.054331
4417.697148
4385.450403
4432.359604
4443.016995
4446.436718
4414.150406
4386.645582
4446.729566
4401.300330
4427.474944
4445.937064
4397.582221
4395.744636
4444.329295
4428.288021
4429.559850
4428.474259
4431.641106
4430.120250
4428.570687
4427.543499
4428.842114
4426.886590
4425.679609
4428.284011
4431.630515
4428.200628
4427.775329
4425.991394
4418.222034
4400.270710
4417.715829
4427.279967
4458.862428
4416.996780
4433.558930
4498.376765
4413.071773
4401.875769
4431.243853
4406.913236
4482.346828
4424.076212
4557.678960
4414.447744
4428.425781
4429.393535
4428.136793
4427.016317
4426.944697
4429.188912
4428.668335
4432.190754
4430.671224
4429.751219
4427.357576
4427.271491
4426.084731
4426.209182
4422.969917
4444.936173
4425.565298
4444.170503
4429.859506
4463.263427
4461.519373
4442.807387
4448.518549
4474.435482
4436.340866
4442.088749
4440.555976
4452.293459
4436.325445
4281.321158
4427.273567
4428.727442
4429.744155
4428.573876
4431.603073
4429.750830
4428.470940
4426.989775
4429.150901
4426.341741
4426.904465
4428.248382
4430.940656
4427.409704
4427.793083
4424.819925
4421.923629
4377.302398
4379.374052
4405.591301
4445.306198
4412.943261
4436.787216
4442.686569
4438.592185
4434.600477
4398.403297
4436.744656
4447.199519
4416.176003
4388.000391
4405.880676