# vtk DataFile Version 2.0
mfree iwf
ASCII

DATASET UNSTRUCTURED_GRID
POINTS 9483 float
0.000000 0.000445 0.000000
0.000000 0.000450 0.000000
0.000000 0.000455 0.000000
0.000000 0.000460 0.000000
0.000000 0.000465 0.000000
0.000000 0.000470 0.000000
0.000000 0.000475 0.000000
0.000000 0.000480 0.000000
0.000000 0.000485 0.000000
0.000001 0.000490 0.000000
-0.000000 0.000496 0.000000
0.000002 0.000500 0.000000
0.000343 0.000725 0.000000
0.000348 0.000733 0.000000
0.000379 0.000767 0.000000
0.000384 0.000771 0.000000
0.000384 0.000771 0.000000
0.000388 0.000775 0.000000
0.000394 0.000780 0.000000
0.000392 0.000779 0.000000
0.000402 0.000787 0.000000
0.000423 0.000805 0.000000
0.000428 0.000808 0.000000
0.000432 0.000809 0.000000
0.000437 0.000811 0.000000
0.000442 0.000812 0.000000
0.000446 0.000814 0.000000
0.000452 0.000816 0.000000
0.000455 0.000817 0.000000
0.000461 0.000819 0.000000
0.000468 0.000821 0.000000
0.000492 0.000831 0.000000
0.000005 0.000445 0.000000
0.000005 0.000450 0.000000
0.000005 0.000455 0.000000
0.000005 0.000460 0.000000
0.000005 0.000465 0.000000
0.000005 0.000470 0.000000
0.000005 0.000475 0.000000
0.000005 0.000480 0.000000
0.000005 0.000485 0.000000
0.000006 0.000489 0.000000
0.000004 0.000496 0.000000
0.000006 0.000499 0.000000
0.000376 0.000763 0.000000
0.000388 0.000766 0.000000
0.000408 0.000791 0.000000
0.000413 0.000795 0.000000
0.000417 0.000798 0.000000
0.000420 0.000800 0.000000
0.000423 0.000801 0.000000
0.000428 0.000802 0.000000
0.000433 0.000804 0.000000
0.000439 0.000806 0.000000
0.000445 0.000809 0.000000
0.000451 0.000811 0.000000
0.000458 0.000812 0.000000
0.000465 0.000816 0.000000
0.000469 0.000817 0.000000
0.000474 0.000818 0.000000
0.000482 0.000825 0.000000
0.000485 0.000827 0.000000
0.000480 0.000825 0.000000
0.000490 0.000829 0.000000
0.000010 0.000445 0.000000
0.000011 0.000450 0.000000
0.000010 0.000455 0.000000
0.000011 0.000460 0.000000
0.000010 0.000465 0.000000
0.000011 0.000469 0.000000
0.000010 0.000475 0.000000
0.000011 0.000480 0.000000
0.000009 0.000486 0.000000
0.000012 0.000490 0.000000
0.000009 0.000497 0.000000
0.000011 0.000498 0.000000
0.000380 0.000762 0.000000
0.000391 0.000766 0.000000
0.000400 0.000779 0.000000
0.000404 0.000785 0.000000
0.000407 0.000788 0.000000
0.000411 0.000791 0.000000
0.000414 0.000784 0.000000
0.000421 0.000791 0.000000
0.000423 0.000795 0.000000
0.000430 0.000799 0.000000
0.000435 0.000800 0.000000
0.000442 0.000805 0.000000
0.000445 0.000801 0.000000
0.000451 0.000803 0.000000
0.000455 0.000809 0.000000
0.000463 0.000813 0.000000
0.000477 0.000819 0.000000
0.000479 0.000821 0.000000
0.000488 0.000824 0.000000
0.000493 0.000823 0.000000
0.000015 0.000445 0.000000
0.000016 0.000450 0.000000
0.000014 0.000456 0.000000
0.000016 0.000459 0.000000
0.000015 0.000466 0.000000
0.000016 0.000470 0.000000
0.000014 0.000475 0.000000
0.000017 0.000480 0.000000
0.000014 0.000485 0.000000
0.000017 0.000488 0.000000
0.000014 0.000495 0.000000
0.000017 0.000498 0.000000
0.000025 0.000500 0.000000
0.000392 0.000770 0.000000
0.000402 0.000780 0.000000
0.000406 0.000778 0.000000
0.000415 0.000788 0.000000
0.000416 0.000794 0.000000
0.000426 0.000792 0.000000
0.000430 0.000794 0.000000
0.000436 0.000792 0.000000
0.000440 0.000799 0.000000
0.000453 0.000799 0.000000
0.000449 0.000806 0.000000
0.000459 0.000806 0.000000
0.000463 0.000808 0.000000
0.000468 0.000810 0.000000
0.000470 0.000812 0.000000
0.000476 0.000813 0.000000
0.000483 0.000816 0.000000
0.000486 0.000819 0.000000
0.000495 0.000820 0.000000
0.000020 0.000445 0.000000
0.000021 0.000450 0.000000
0.000020 0.000456 0.000000
0.000021 0.000460 0.000000
0.000018 0.000465 0.000000
0.000022 0.000467 0.000000
0.000019 0.000475 0.000000
0.000022 0.000479 0.000000
0.000020 0.000487 0.000000
0.000022 0.000491 0.000000
0.000021 0.000497 0.000000
0.000022 0.000499 0.000000
0.000039 0.000500 0.000000
0.000398 0.000766 0.000000
0.000401 0.000771 0.000000
0.000405 0.000773 0.000000
0.000408 0.000782 0.000000
0.000418 0.000782 0.000000
0.000425 0.000786 0.000000
0.000435 0.000796 0.000000
0.000431 0.000788 0.000000
0.000442 0.000795 0.000000
0.000447 0.000791 0.000000
0.000455 0.000795 0.000000
0.000458 0.000797 0.000000
0.000465 0.000804 0.000000
0.000470 0.000804 0.000000
0.000480 0.000807 0.000000
0.000479 0.000812 0.000000
0.000489 0.000813 0.000000
0.000490 0.000818 0.000000
0.000496 0.000816 0.000000
0.000025 0.000445 0.000000
0.000025 0.000450 0.000000
0.000026 0.000454 0.000000
0.000025 0.000459 0.000000
0.000025 0.000467 0.000000
0.000026 0.000472 0.000000
0.000023 0.000476 0.000000
0.000027 0.000481 0.000000
0.000023 0.000485 0.000000
0.000026 0.000488 0.000000
0.000027 0.000492 0.000000
0.000027 0.000500 0.000000
0.000360 0.000748 0.000000
0.000396 0.000771 0.000000
0.000398 0.000775 0.000000
0.000412 0.000779 0.000000
0.000417 0.000777 0.000000
0.000421 0.000786 0.000000
0.000430 0.000783 0.000000
0.000425 0.000781 0.000000
0.000436 0.000787 0.000000
0.000441 0.000791 0.000000
0.000445 0.000798 0.000000
0.000449 0.000794 0.000000
0.000456 0.000802 0.000000
0.000464 0.000800 0.000000
0.000474 0.000808 0.000000
0.000474 0.000803 0.000000
0.000485 0.000811 0.000000
0.000483 0.000805 0.000000
0.000492 0.000811 0.000000
0.000498 0.000811 0.000000
0.000030 0.000445 0.000000
0.000030 0.000450 0.000000
0.000029 0.000457 0.000000
0.000033 0.000461 0.000000
0.000029 0.000464 0.000000
0.000030 0.000468 0.000000
0.000032 0.000472 0.000000
0.000030 0.000477 0.000000
0.000031 0.000486 0.000000
0.000031 0.000492 0.000000
0.000033 0.000497 0.000000
0.000031 0.000499 0.000000
0.000049 0.000500 0.000000
0.000390 0.000761 0.000000
0.000408 0.000769 0.000000
0.000412 0.000774 0.000000
0.000414 0.000772 0.000000
0.000422 0.000778 0.000000
0.000434 0.000780 0.000000
0.000441 0.000786 0.000000
0.000437 0.000782 0.000000
0.000448 0.000787 0.000000
0.000454 0.000790 0.000000
0.000464 0.000797 0.000000
0.000463 0.000792 0.000000
0.000468 0.000797 0.000000
0.000473 0.000797 0.000000
0.000476 0.000801 0.000000
0.000488 0.000801 0.000000
0.000488 0.000806 0.000000
0.000494 0.000807 0.000000
0.000499 0.000807 0.000000
0.000035 0.000445 0.000000
0.000035 0.000450 0.000000
0.000037 0.000454 0.000000
0.000034 0.000456 0.000000
0.000035 0.000466 0.000000
0.000037 0.000472 0.000000
0.000032 0.000479 0.000000
0.000042 0.000479 0.000000
0.000035 0.000483 0.000000
0.000034 0.000488 0.000000
0.000038 0.000491 0.000000
0.000036 0.000498 0.000000
0.000338 0.000713 0.000000
0.000358 0.000745 0.000000
0.000403 0.000763 0.000000
0.000413 0.000767 0.000000
0.000424 0.000773 0.000000
0.000424 0.000768 0.000000
0.000429 0.000778 0.000000
0.000435 0.000775 0.000000
0.000444 0.000783 0.000000
0.000444 0.000779 0.000000
0.000453 0.000782 0.000000
0.000459 0.000790 0.000000
0.000462 0.000788 0.000000
0.000475 0.000793 0.000000
0.000480 0.000798 0.000000
0.000483 0.000793 0.000000
0.000484 0.000801 0.000000
0.000492 0.000801 0.000000
0.000496 0.000803 0.000000
0.000501 0.000803 0.000000
0.000040 0.000445 0.000000
0.000040 0.000450 0.000000
0.000038 0.000462 0.000000
0.000041 0.000456 0.000000
0.000041 0.000463 0.000000
0.000039 0.000468 0.000000
0.000042 0.000473 0.000000
0.000037 0.000477 0.000000
0.000041 0.000487 0.000000
0.000043 0.000491 0.000000
0.000042 0.000497 0.000000
0.000045 0.000498 0.000000
0.000318 0.000572 0.000000
0.000385 0.000762 0.000000
0.000398 0.000760 0.000000
0.000414 0.000759 0.000000
0.000419 0.000772 0.000000
0.000427 0.000773 0.000000
0.000432 0.000772 0.000000
0.000440 0.000777 0.000000
0.000448 0.000780 0.000000
0.000453 0.000787 0.000000
0.000453 0.000777 0.000000
0.000464 0.000783 0.000000
0.000468 0.000789 0.000000
0.000474 0.000787 0.000000
0.000470 0.000791 0.000000
0.000479 0.000792 0.000000
0.000486 0.000795 0.000000
0.000491 0.000795 0.000000
0.000497 0.000798 0.000000
0.000503 0.000798 0.000000
0.000045 0.000445 0.000000
0.000046 0.000450 0.000000
0.000046 0.000456 0.000000
0.000045 0.000461 0.000000
0.000045 0.000467 0.000000
0.000046 0.000473 0.000000
0.000046 0.000479 0.000000
0.000040 0.000484 0.000000
0.000052 0.000485 0.000000
0.000046 0.000483 0.000000
0.000048 0.000493 0.000000
0.000050 0.000498 0.000000
0.000318 0.000579 0.000000
0.000375 0.000761 0.000000
0.000405 0.000768 0.000000
0.000418 0.000766 0.000000
0.000420 0.000764 0.000000
0.000432 0.000768 0.000000
0.000438 0.000771 0.000000
0.000442 0.000773 0.000000
0.000448 0.000775 0.000000
0.000457 0.000778 0.000000
0.000459 0.000783 0.000000
0.000468 0.000784 0.000000
0.000462 0.000778 0.000000
0.000477 0.000783 0.000000
0.000482 0.000787 0.000000
0.000487 0.000789 0.000000
0.000492 0.000790 0.000000
0.000495 0.000792 0.000000
0.000499 0.000794 0.000000
0.000505 0.000793 0.000000
0.000050 0.000445 0.000000
0.000051 0.000450 0.000000
0.000048 0.000455 0.000000
0.000052 0.000459 0.000000
0.000050 0.000464 0.000000
0.000051 0.000473 0.000000
0.000050 0.000468 0.000000
0.000050 0.000478 0.000000
0.000047 0.000488 0.000000
0.000053 0.000491 0.000000
0.000058 0.000492 0.000000
0.000053 0.000498 0.000000
0.000321 0.000656 0.000000
0.000375 0.000754 0.000000
0.000387 0.000759 0.000000
0.000411 0.000762 0.000000
0.000425 0.000762 0.000000
0.000427 0.000764 0.000000
0.000433 0.000765 0.000000
0.000438 0.000765 0.000000
0.000450 0.000768 0.000000
0.000447 0.000770 0.000000
0.000458 0.000771 0.000000
0.000467 0.000775 0.000000
0.000468 0.000779 0.000000
0.000473 0.000780 0.000000
0.000479 0.000783 0.000000
0.000486 0.000781 0.000000
0.000486 0.000785 0.000000
0.000494 0.000786 0.000000
0.000501 0.000788 0.000000
0.000506 0.000789 0.000000
0.000054 0.000445 0.000000
0.000057 0.000450 0.000000
0.000055 0.000455 0.000000
0.000055 0.000462 0.000000
0.000056 0.000466 0.000000
0.000055 0.000471 0.000000
0.000056 0.000477 0.000000
0.000058 0.000480 0.000000
0.000053 0.000483 0.000000
0.000057 0.000486 0.000000
0.000056 0.000497 0.000000
0.000060 0.000497 0.000000
0.000327 0.000679 0.000000
0.000372 0.000760 0.000000
0.000380 0.000757 0.000000
[...]
POINT_DATA 9483
SCALARS density float 1
LOOKUP_TABLE default
4430.373414
4428.600658
4425.957952
4421.438667
4419.886241
4430.970423
4438.302476
4436.515598
4445.912374
4424.715568
4432.965489
4399.213059
4422.309609
4440.441873
4435.631179
4430.081110
4441.060295
4442.113541
4448.627529
4446.851131
4424.483408
4423.292024
4414.861738
4448.819151
4427.978611
4418.404472
4449.675199
4438.501832
4416.875640
4458.791048
4436.399056
4447.200014
4427.179925
4429.694582
4426.309938
4441.696607
4444.411347
4422.841636
4418.721933
4413.951233
4393.572733
4427.106459
4437.526193
4401.813276
4424.022209
4436.468754
4415.610657
4398.590431
4419.431419
4414.125590
4419.523227
4452.179227
4415.215904
4432.562352
4435.236111
4385.004876
4411.731080
4397.870722
4390.474344
4415.750689
4405.369812
4408.744529
4412.494599
4417.029692
4422.414571
4433.600907
4438.296715
4403.932285
4427.584620
4411.709625
4458.877662
4405.728031
4485.015511
4359.975856
4475.795896
4407.555928
4406.340126
4480.374770
4440.049051
4387.679697
4408.851989
4421.343165
4419.293395
4395.463436
4445.428335
4409.773322
4410.175190
4427.157482
4417.951020
4404.713361
4481.958474
4397.006009
4453.661454
4447.328014
4447.197816
4417.219939
4436.079016
4444.292108
4445.509731
4434.901805
4448.186906
4402.854405
4456.966534
4355.898799
4473.666834
4409.239169
4514.116655
4395.463582
4437.425731
4347.034444
4432.179854
4410.272253
4459.163447
4456.050289
4424.585309
4436.300289
4421.629413
4423.324121
4456.184804
4431.856841
4411.584502
4460.046401
4457.555901
4491.457443
4455.051993
4332.666266
4514.660315
4449.487561
4434.582631
4420.690432
4434.123583
4410.939467
4453.825445
4426.335599
4442.051439
4457.974788
4479.069895
4356.342036
4481.122151
4442.130730
4420.888288
4388.169661
4463.947627
4405.729283
4537.982700
4452.745199
4484.374708
4443.978883
4420.840303
4412.764130
4438.865222
4445.102798
4417.635720
4426.932554
4381.528400
4444.453170
4454.840832
4445.446321
4353.848352
4436.042187
4429.035557
4441.485800
4425.430461
4443.347750
4447.994669
4399.718906
4449.177765
4368.488145
4416.848836
4467.495755
4405.551308
4429.276670
4426.529317
4475.197610
4380.508037
4360.194205
4458.405117
4383.528720
4426.677407
4400.419557
4427.720625
4431.999002
4452.192529
4396.705750
4409.578536
4463.061431
4356.996813
4496.904145
4466.493206
4388.747352
4424.431307
4421.593628
4432.930424
4422.153107
4426.360748
4433.015259
4421.818893
4458.347828
4418.746950
4456.473473
4441.578865
4419.247550
4456.173219
4425.939089
4416.485484
4423.895413
4412.703957
4463.587031
4412.028255
4415.635769
4451.659217
4440.774469
4425.632544
4410.797012
4424.277222
4457.821227
4403.450333
4397.009559
4422.344799
4440.559639
4481.372177
4399.779866
4427.893550
4441.151010
4435.522153
4422.906281
4435.231330
4431.415417
4415.463039
4422.499470
4454.618308
4419.696668
4407.182134
4433.432074
4412.100553
4444.589856
4423.520366
4420.881060
4417.674385
4423.485440
4448.739959
4434.457631
4442.370750
4417.684096
4434.075166
4447.539583
4416.572391
4440.867475
4437.515837
4443.556440
4383.159063
4462.435558
4445.116215
4415.402778
4420.669956
4413.378534
4427.805409
4420.556243
4430.173215
4393.205824
4454.108763
4443.171679
4437.525038
4424.951581
4452.964268
4437.459810
4438.180477
4423.084783
4585.744972
4395.125894
4443.272034
4435.515610
4400.370538
4438.852104
4426.093825
4416.529309
4443.239949
4445.624059
4453.380584
4410.756490
4443.183985
4396.476182
4441.218502
4432.646374
4436.460014
4372.789660
4443.777801
4442.262005
4429.460324
4429.786008
4448.051180
4409.220186
4399.895752
4418.232843
4460.693740
4430.227613
4457.410080
4417.883180
4473.013265
4437.848606
4513.246984
4420.384492
4443.120053
4460.131122
4444.369314
4418.959758
4446.519981
4438.080667
4409.821297
4427.124503
4424.930394
4420.518703
4428.536691
4448.148416
4411.040324
4405.423597
4449.654333
4471.896213
4399.871536
4419.222307
4435.086070
4405.961802
4443.800109
4431.264875
4423.971733
4448.605501
4446.426440
4368.939595
4368.718406
4409.605371
4518.354508
4415.414795
4430.787244
4501.565478
4439.451297
4444.290777
4447.361602
4424.822665
4469.812913
4414.792436
4464.723043
4441.227878
4433.171213
4411.598847
4454.280218
4430.886685
4453.847576
4417.836177
4448.320470
4411.095906
4424.620598
4434.505753
4429.345189
4423.462904
4421.122067
4453.270945
4401.395460
4428.860590
4422.256310
4435.607244
4477.901051
4350.526921
4427.655706
4397.584508
4428.827660
4405.170762
4492.097264
4427.812863
4447.902849
4406.703446
4442.302387
4443.129295
4413.116362
4436.511361
4443.289950
4411.964791
4414.583165
4421.283432
4437.169826
4434.472194
4450.717006
4425.774608
4439.960036
4418.228131
4417.185862
4411.277978
4462.958623
4446.518981
4412.351083
4451.035024
4440.318385
4416.260002
4483.868658
4413.851383
4440.560471
4432.133290
4413.991072
4430.828687
4440.943690
4415.610529
4381.008712
4460.072882
4420.900233
4452.406475
4390.186607
4425.968904
4441.155358
4447.082204
4427.570634
4430.875904
4462.385517
4454.946066
4419.206722
4423.541095
4423.347610
4433.311076
4440.111405
4424.326683
4403.850085
4448.559638
4434.692249
4420.181448
4404.131629
4438.456504
4454.243898
4367.450364
4466.313941
4429.553483
4423.029915
4409.118653
4435.105220
4422.236985
4458.589091
4412.428248
4424.968654
4422.883034
4406.069570
4433.722395
4438.514142
4460.827350
4393.522462
4420.216504
4412.436716
4421.108397
4420.821078
4450.232311
4418.918768
4424.010584
4432.356252
4435.601710
4402.654382
4398.322342
4408.293306
4458.655702
4407.837274
4431.652853
4376.897305
4433.534243
4430.852622
4448.663648
4584.612086
4420.276350
4418.513000
4467.015466
4445.710011
4411.001039
4432.027550
4477.115167
4370.569063
4438.198170
4436.154379
4415.756082
4441.600584
4445.173048
4424.923495
4456.737358
4431.936686
4416.627727
4429.406342
4428.411592
4436.714720
4410.005614
4434.608377
4431.407499
4452.530771
4404.177305
4446.727852
4460.742550
4480.829701
4335.944283
4446.279175
4451.586639
4426.032825
4417.055482
4418.111531
4325.733087
4444.074613
4457.690546
4439.561244
4444.428442
4444.469623
4415.101990
4446.328023
4437.505028
4465.902846
4457.098368
4427.906074
4402.142041
4427.226730
4429.482408
4429.190275
4426.552250
4415.974113
4422.636158
4430.702149
4414.003424
4421.039043
4414.705536
4462.734370
4397.148356
4450.919093
4480.020589
4420.287663
4417.203551
4414.682099
4431.442535
4456.647788
4433.028165
4446.772575
4413.162657
4433.504738
4425.227541
4446.260738
4460.334665
4433.752334
4445.437355
4442.762467
4396.576215
4428.015387
4433.876394
4443.114572
4442.232893
4419.836037
4432.142774
4442.240775
4428.887796
4423.835493
4462.529876
4475.285594
4415.925459
4429.158625
4427.020886
4397.319891
4358.081080
4430.397178
4468.104800
4510.711548
4508.869356
4455.731599
4435.569685
4416.032109
4380.409916
4466.410117
4468.209490
4455.251655
4484.719106
4417.526439
4402.695419
4431.643313
4453.232648
4395.497048
4424.544889
4403.566224
4436.379112
4429.822588
4425.212741
4422.900175
4431.373331
4443.646643
4420.355666
4395.814803
4466.062752
4443.067901
4465.506148
4440.300702
4442.779809
4394.708345
4427.477204
4420.452613
4416.283908
4430.341388
4413.694486
4437.677879
4399.236745
4421.358291
4413.369957
4399.577534
4436.261150
4403.577106
4415.255661
4450.721450
4437.638092
4447.502358
4440.953979
4444.391671
4426.715049
4424.669716
4425.652219
4443.710986
4429.675641
4398.686008
4422.556231
4431.152563
4382.767372
4420.134698
4401.129584
4479.105876
4446.619682
4432.487917
4439.969039
4414.208847
4419.191021
4456.167087
4433.133920
4409.259335
4439.765372
4436.585858
4385.121655
4497.793185
4417.613645
4452.431484
4402.221322
4432.131847
4407.173838
4436.647366
4402.887957
4416.220815
4431.694036
4432.888530
4426.953175
4417.411907
4420.241917
4443.862319
4424.068829
4439.540683
4459.265393
4395.086472
4376.808389
4453.714235
4469.832773
4378.973249
4542.302636
4423.709188
4424.564116
4413.858414
4460.202303
4428.875747
4439.945462
4427.615392
4466.199367
4433.410000
4461.867017
4466.228487
4389.827476
4470.302523
4439.665965
4440.895518
4465.273831
4445.582750
4403.332456
4441.676633
4418.577631
4448.034152
4435.315356
4414.716610
4420.938335
4447.882484
4446.695563
4392.885428
4446.595855
4481.551627
4370.915916
4426.608564
4434.139169
4449.676524
4430.614396
4415.345700
4402.577438
4440.187554
4458.386024
4490.379861
4448.112646
4409.627578
4349.949837
4445.301916
4459.473057
4467.328896
4425.248128
4413.619801
4419.718555
4432.395630
4417.350816
4437.954733
4436.345640
4427.220694
4425.914033
4440.032819
4447.224756
4400.244281
4401.913855
4437.856744
4389.335870
4451.105717
4392.222408
4386.398545
4473.657887
4429.291130
4434.210653
4425.122233
4467.407116
4457.951668
4444.812983
4429.328524
4409.747611
4413.226662
4368.614367
4346.745314
4445.986043
4417.734487
4416.268090
4453.617702
4426.615890
4472.363798
4421.081586
4410.122596
4425.715430
4434.561017
4445.542678
4413.160462
4412.095645
4431.677789
4435.953621
4401.922081
4455.356404
4465.769544
4454.465032
4413.891557
4427.567154
4427.455618
4394.883171
4379.829060
4357.789622
4462.766148
4457.762693
4424.861943
4426.298337
4458.796907
4429.581811
4424.117672
4438.336352
4457.466875
4450.208023
4434.573126
4432.078153
4410.117788
4414.812672
4455.019927
4422.546596
4418.916345
4428.806107
4428.473321
4428.919071
4429.417896
4429.552602
4429.905774
4430.006185
4430.394217
4430.528078
4430.962216
4431.022692
4431.108267
4430.775550
4430.056891
4422.228707
4427.719958
4427.861246
4428.690674
4429.252710
4429.489274
4430.009650
4430.043168
4430.374137
4430.147916
4430.318851
4430.201398
4430.467288
4430.715179
4430.847900
4424.690313
4427.595831
4427.535045
4427.976732
4428.746286
4428.639613
4429.356949
4429.183936
4429.889650
4429.964875
4430.651171
4430.425115
4430.407084
4430.293817
4429.225114
4425.735162
4427.808833
4427.932624
4428.359829
4428.861685
4429.120256
4429.434473
4429.525927
4429.787750
4429.314541
4429.375927
4428.971178
4429.334364
4428.816707
4429.879256
4426.908672
4427.983901
4427.959186
4427.989932
4428.463805
4428.281331
4428.909026
4428.704863
4429.242008
4429.337354
4430.069357
4429.453301
4430.080886
4428.136713
4428.770330
4427.143823
4428.118863
4428.376849
4428.081648
4429.033604
4428.567484
4429.393829
4428.810764
4429.602826
4428.598570
4428.929557
4428.330231
4428.492415
4427.758919
4429.137901
4427.333379
4428.249170
4428.161779
4428.059787
4428.300053
4428.110073
4428.578413
4428.390633
4428.855197
4428.893111
4429.702426
4429.145946
4429.391403
4427.804256
4429.148959
4427.496962
4428.462211
4428.229220
4428.296626
4428.690254
4428.624199
4428.894957
4428.781574
4428.998611
4428.579870
4428.497197
4427.948491
4428.870517
4427.185008
4427.316524
4427.324073
4428.345577
4428.182989
4427.963092
4428.205038
4427.905576
4428.351361
4428.106881
4428.623663
4428.643950
4429.488972
4429.503689
4429.366178
4428.960257
4429.220626
4427.568299
4428.510096
4428.123269
4428.324648
4428.434207
4428.546770
4428.562578
4428.641700
4428.528996
4428.584606
4428.133573
4428.429697
4428.986574
4429.234634
4429.528611
4427.159512
4428.457509
4427.908180
4427.993612
4427.860533
4427.878216
4427.868825
4427.932219
4428.205011
4428.409563
4429.278303
4429.303203
4430.413670
4429.940357
4430.506429
4427.212350
4428.512870
4427.900763
4428.184677
4428.255141
4428.204114
4428.339581
4428.166145
4428.351445
4427.957490
4428.044730
4427.876517
4428.657127
4429.401873
4431.277670
4427.187799
4428.292515
4427.846327
4427.877316
4427.568321
4427.703481
4427.462949
4427.764692
4427.554312
4428.281637
4428.133602
4428.942517
4429.053684
4429.361863
4430.111293
4426.334916
4438.109367
4431.578492
4452.350775
4420.051259
4459.795688
4430.653335
4420.383903
4394.721431
4411.344015
4404.696624
4437.330475
4415.718279
4438.942549
4425.488752
4416.530395
4427.133727
4428.313820
4427.854909
4427.854010
4428.071423
4427.928613
4427.945018
4427.845549
4427.749286
4427.247374
4427.275850
4426.848441
4426.569373
4427.711038
4427.801294
4427.796355
4443.489321
4419.315896
4421.452511
4410.850937
4442.223344
4426.206386
4389.270767
4444.819419
4436.481623
4408.557055
4461.357189
4421.707907
4468.483446
4392.173644
4398.335341
4426.694548
4428.025813
4427.760421
4427.490933
4427.584013
4426.939757
4427.562291
4426.649310
4427.475058
4427.015289
4427.781150
4427.200769
4428.190318
4426.028312
4428.113705
4424.781670
4451.815778
4418.211371
4441.510000
4400.099484
4445.450065
4424.805461
4409.331963
4436.122607
4428.288688
4452.863790
4430.851080
4407.403018
4442.612785
4375.422411
4444.868914
4426.787213
4428.012197
4427.876265
4427.310100
4427.962989
4427.425591
4427.600324
4427.296756
4427.253168
4426.453648
4426.651076
4425.380544
4425.859808
4423.376403
4426.888691
4414.460083
4410.105572
4400.380956
4372.442208
4409.332751
4442.962082
4428.097898
4458.872349
4405.026610
4413.950331
4449.667608
4418.531868
4403.771343
4391.000203
4407.885592
4431.108343
4426.293859
4428.050244
4427.319501
4427.424655
4427.142481
4426.720270
4427.024110
4426.474903
4426.770767
4426.793379
4426.662827
4426.188695
4426.192899
4423.942555
4421.623805
4439.038815
4455.434548
4404.634637
4466.479411
4462.418934
4430.757745
4512.936605
4427.856914
4398.214508
4455.078275
4439.585243
4461.324912
4417.222964
4395.491614
4435.841391
4411.413487
4426.266434
4428.114990
4427.230664
4427.554110
4427.100192
4427.522334
4427.040587
4427.080536
4426.854435
4425.876489
4425.911603
4425.027069
4424.186827
4423.654901
4422.830930
4420.562590
4406.078228
4446.089731
4445.657553
4489.802531
4384.373473
4456.228440
4420.819759
4435.915513
4387.373681
4386.045330
4436.826174
4404.359149
4448.601447
4457.150197
4427.969389
4426.308218
4427.737405
4427.456716
4426.838279
4427.201551
4426.533373
4426.657668
4426.668346
4426.083277
4426.964645
4425.801671
4426.131153
4425.924202
4423.942331
4424.570896
4447.989604
4438.958307
4457.067908
4387.420241
4340.712792
4435.436987
4476.744972
4585.717594
4451.481563
4440.271403
4409.375804
4404.770161
4466.912582
4420.939612
4478.483299
4391.721580
4426.119065
4427.858340
4427.179006
4427.343432
4427.126528
4427.053314
4427.351670
4426.444018
4427.011615
4425.315180
4426.219527
4424.777210
4424.764140
4425.145171
4424.801668
4433.340814
4417.924120
4444.149266
4409.219792
4405.434806
4470.412727
4447.824072
4450.369067
4414.965627
4406.202001
4453.977609
4383.047147
4419.026794
4461.167836
4438.001811
4434.599311
4426.012356
4427.626967
4427.313914
4426.694694
4427.165092
4426.499789
4426.778433
4426.172213
4426.640657
4426.197555
4426.474198
4426.229450
4426.486754
4425.933652
4426.431233
4426.800406
4450.592037
4402.133981
4429.884966
4438.121888
4431.909925
4439.705084
4419.369889
4430.277021
4438.457710
4407.806191
4386.388776
4424.556804
4453.210105
4408.169318
4407.840504
4426.003430
4427.561422
4427.421112
4426.787078
4427.554128
4426.583950
4427.208345
4426.634623
4426.130521
4425.783965
4425.790250
4424.645854
4426.142672
4424.286259
4426.953422
4420.230727
4436.493240
4435.053346
4440.048249
4380.326686
4411.514198
4399.532901
4451.961720
4409.327262
4409.493368
4414.113542
4437.965239
4327.748054
4417.202952
4495.594039
4440.638250
4425.994702
4427.706453
4426.989436
4427.145505
4426.599845
4426.627041
4426.596658
4425.476651
4426.732575
4425.602970
4426.447717
4426.212175
4425.621253
4424.355426
4425.246782
4433.875000
4432.466957
4436.680735
4424.552973
4436.304520
4428.624042
4466.557263
4463.797296
4427.826629
4432.335536
4435.812365
4427.820456
4456.223934
4464.914909
4396.104747
4391.459549
4426.060671
4427.570791
4427.260928
4426.655163
4427.266800
4426.398044
4426.654302
4426.532246
4426.006260
4425.553195
4426.143447
4424.232117
4425.546912
4423.968836
4422.934493
4446.465786
4447.079016
4422.350747
4427.902577
4402.691239
4420.486676
4430.998728
4463.141908
4479.066544
4428.356406
4419.729873
4393.065383
4429.338897
4395.650269
4398.093190
4467.183920
4426.092376
4427.397649
4427.391084
4426.391143
4427.041131
4425.909358
4426.784065
4425.647732
4426.534748
4426.604113
4425.994485
4426.314521
4425.250475
4424.948305
4426.611344
4435.305144
4400.231440
4423.105169
4413.021231
4396.000346
4449.337561
4459.031334
4457.991932
4435.012598
4413.090033
4436.325685
4438.962782
4434.977073
4396.886054
4464.478251
4472.276428
4426.104066
4427.725050
4426.829725
4427.266316
4426.619163
4426.959138
4426.847709
4426.556908
4426.909582
4424.876590
4426.008701
4424.414323
4425.256400
4423.998783
4426.015595
4444.665032
4404.951931
4416.027196
4443.342102
4421.612046
4423.474925
4463.270408
4434.768006
4459.036584
4451.601136
4449.315539
4451.074807
4432.530482
4427.214664
4429.311019
4450.950768
4425.860696
4427.541822
4427.268236
4426.346669
4427.295029
4426.363132
4426.690144
4426.307777
4425.822891
4426.299665
4425.897696
4425.230447
4426.246521
4424.942438
4424.608565
4428.829780
4423.792416
4410.026048
4434.143979
4456.388590
4457.996568
4409.516960
4486.371439
4441.362366
4475.070507
4443.888074
4422.354490
4423.752722
4419.973007
4401.495329
4418.687797
4426.125133
4427.493227
4427.209168
4427.067715
4427.273910
4426.618666
4427.319299
4425.979433
4426.978603
4424.992836
4425.887867
4425.354874
4425.618195
4424.917200
4425.727479
4421.382821
4435.995943
4443.327116
4415.588468
4359.134002
4426.396834
4615.888911
4481.027400
4453.659767
4464.465315
4450.187406
4444.411119
4434.268932
4400.321178
4461.400837
4417.699336
4426.012927
4427.802351
4426.993003
4427.240546
4426.739902
4427.148172
4426.602209
4426.842418
4426.448544
4426.787601
4426.648221
4426.493319
4426.203801
4425.774160
4427.191652
4433.970920
4418.128604
4407.712129
4479.571759
4375.179666
4428.512877
4467.821259
4488.779943
4486.714038
4441.725131
4458.108918
4447.799727
4443.795179
4432.308113
4388.296280
4423.452149
4426.077271
4427.636818
4427.256035
4426.786412
4427.518115
4426.571569
4426.994842
4426.534842
4426.167895
4425.308736
4425.545442
4424.398141
4426.433483
4425.444169
4423.024360
4443.897728
4432.841144
4461.514570
4384.700841
4363.878629
4401.387468
4463.239990
4464.623587
4466.393627
4445.337645
4466.392779
4440.917292
4482.916620
4439.522998
4477.348826
4416.779174
4426.217636
4427.346976
4427.493990
4426.817510
4426.985090
4425.989144
4426.928805
4424.922573
4426.204511
4425.235219
4426.244537
4426.472366
4426.191308
4424.580600
4429.401360
4433.344439
4426.868606
4435.561179
4452.629896
4459.813652
4466.088351
4475.025129
4465.320243
4468.317103
4438.116691
4434.439957
4389.070605
4389.437555
4438.944071
4437.467368
4419.987061
4426.079303
4427.782768
4427.179050
4426.789935
4426.912539
4426.630730
4426.504288
4426.688438
4426.550197
4426.145068
4426.401526
4425.047444
4426.088481
4423.313404
4426.962112
4449.810766
4440.601801
4435.796440
4449.025548
4449.783092
4491.832705
4512.666840
4456.663769
4456.175502
4449.624574
4438.523265
4398.012530
4380.320158
4399.272148
4321.408235
4420.058283
4426.054424
4427.547701
4427.283994
4426.644706
4427.474978
4426.356698
4427.616465
4426.380851
4427.285579
4426.769683
4427.137955
4424.800886
4426.221030
4426.563571
4422.935383
4443.130668
4434.553453
4452.439653
4437.402769
4440.776993
4472.917116
4457.170522
4461.475044
4449.522199
4468.745397
4456.499161
4429.627623
4392.507535
4462.606975
4532.486079
4409.437708
4426.040712
4427.633279
4427.540255
4427.171728
4427.385162
4427.087738
4427.233322
4426.283900
4427.242180
4424.837192
4424.502606
4424.263134
4424.725235
4423.422480
4427.898066
4428.585687
4420.573116
4416.826960
4431.616942
4421.443381
4437.486165
4448.443284
4425.066361
4468.047467
4448.343699
4445.616994
4434.001122
4414.589462
4443.093509
4411.586586
4439.429375
4426.213480
4428.209509
4427.075671
4427.564987
4427.041875
4427.214014
4426.249520
4427.058147
4425.343573
4426.315579
4424.516473
4422.898230
4425.064315
4424.545266
4426.085130
4419.404710
4414.531507
4413.651131
4454.785638
4425.147095
4455.094125
4450.707519
4462.163574
4449.705145
4464.097347
4468.149633
4448.608807
4452.341078
4429.248295
4393.829174
4405.641617