# vtk DataFile Version 2.0
mfree iwf
ASCII

DATASET UNSTRUCTURED_GRID
POINTS 11907 float
-0.000000 0.000445 0.000000
-0.000000 0.000450 0.000000
-0.000000 0.000455 0.000000
-0.000000 0.000460 0.000000
-0.000000 0.000465 0.000000
-0.000000 0.000470 0.000000
-0.000000 0.000475 0.000000
-0.000000 0.000480 0.000000
-0.000000 0.000485 0.000000
0.000000 0.000490 0.000000
-0.000000 0.000496 0.000000
0.000002 0.000500 0.000000
0.001381 0.001083 0.000000
0.001389 0.001080 0.000000
0.001430 0.001055 0.000000
0.001434 0.001052 0.000000
0.001433 0.001052 0.000000
0.001440 0.001048 0.000000
0.001445 0.001043 0.000000
0.001441 0.001047 0.000000
0.001453 0.001038 0.000000
0.001474 0.001021 0.000000
0.001478 0.001015 0.000000
0.001481 0.001012 0.000000
0.001483 0.001007 0.000000
0.001486 0.001003 0.000000
0.001489 0.000999 0.000000
0.001491 0.000994 0.000000
0.001493 0.000991 0.000000
0.001496 0.000985 0.000000
0.001499 0.000980 0.000000
0.001516 0.000966 0.000000
0.000005 0.000445 0.000000
0.000005 0.000450 0.000000
0.000005 0.000455 0.000000
0.000005 0.000460 0.000000
0.000005 0.000465 0.000000
0.000005 0.000470 0.000000
0.000005 0.000475 0.000000
0.000005 0.000480 0.000000
0.000005 0.000485 0.000000
0.000006 0.000489 0.000000
0.000003 0.000496 0.000000
0.000006 0.000499 0.000000
0.001425 0.001057 0.000000
0.001427 0.001048 0.000000
0.001458 0.001032 0.000000
0.001463 0.001028 0.000000
0.001467 0.001024 0.000000
0.001469 0.001022 0.000000
0.001471 0.001020 0.000000
0.001472 0.001015 0.000000
0.001475 0.001012 0.000000
0.001478 0.001006 0.000000
0.001483 0.000999 0.000000
0.001485 0.000995 0.000000
0.001488 0.000989 0.000000
0.001493 0.000981 0.000000
0.001495 0.000977 0.000000
0.001499 0.000973 0.000000
0.001508 0.000967 0.000000
0.001509 0.000966 0.000000
0.001505 0.000970 0.000000
0.001513 0.000964 0.000000
0.000010 0.000445 0.000000
0.000010 0.000450 0.000000
0.000010 0.000455 0.000000
0.000010 0.000460 0.000000
0.000010 0.000465 0.000000
0.000010 0.000469 0.000000
0.000010 0.000475 0.000000
0.000010 0.000479 0.000000
0.000009 0.000486 0.000000
0.000011 0.000489 0.000000
0.000008 0.000497 0.000000
0.000011 0.000498 0.000000
0.001423 0.001054 0.000000
0.001429 0.001045 0.000000
0.001444 0.001039 0.000000
0.001451 0.001035 0.000000
0.001455 0.001032 0.000000
0.001459 0.001029 0.000000
0.001449 0.001029 0.000000
0.001456 0.001024 0.000000
0.001461 0.001020 0.000000
0.001466 0.001016 0.000000
0.001472 0.001008 0.000000
0.001476 0.001003 0.000000
0.001475 0.000997 0.000000
0.001479 0.000993 0.000000
0.001483 0.000991 0.000000
0.001490 0.000984 0.000000
0.001500 0.000971 0.000000
0.001502 0.000969 0.000000
0.001505 0.000962 0.000000
0.001505 0.000956 0.000000
0.000015 0.000445 0.000000
0.000016 0.000450 0.000000
0.000014 0.000456 0.000000
0.000017 0.000460 0.000000
0.000014 0.000469 0.000000
0.000016 0.000465 0.000000
0.000014 0.000476 0.000000
0.000017 0.000480 0.000000
0.000014 0.000484 0.000000
0.000016 0.000489 0.000000
0.000014 0.000495 0.000000
0.000016 0.000497 0.000000
0.000025 0.000500 0.000000
0.001433 0.001045 0.000000
0.001447 0.001036 0.000000
0.001440 0.001035 0.000000
0.001452 0.001026 0.000000
0.001462 0.001025 0.000000
0.001461 0.001017 0.000000
0.001468 0.001011 0.000000
0.001463 0.001010 0.000000
0.001469 0.001006 0.000000
0.001474 0.000991 0.000000
0.001479 0.001000 0.000000
0.001481 0.000985 0.000000
0.001486 0.000985 0.000000
0.001486 0.000979 0.000000
0.001490 0.000978 0.000000
0.001492 0.000971 0.000000
0.001496 0.000968 0.000000
0.001498 0.000963 0.000000
0.001503 0.000954 0.000000
0.000019 0.000445 0.000000
0.000021 0.000450 0.000000
0.000018 0.000455 0.000000
0.000022 0.000459 0.000000
0.000019 0.000469 0.000000
0.000024 0.000468 0.000000
0.000018 0.000475 0.000000
0.000022 0.000479 0.000000
0.000019 0.000486 0.000000
0.000021 0.000491 0.000000
0.000020 0.000497 0.000000
0.000022 0.000499 0.000000
0.000039 0.000500 0.000000
0.001426 0.001034 0.000000
0.001435 0.001038 0.000000
0.001441 0.001030 0.000000
0.001446 0.001032 0.000000
0.001455 0.001019 0.000000
0.001451 0.001015 0.000000
0.001463 0.001006 0.000000
0.001455 0.001013 0.000000
0.001465 0.001001 0.000000
0.001464 0.000992 0.000000
0.001466 0.000987 0.000000
0.001472 0.000986 0.000000
0.001480 0.000979 0.000000
0.001483 0.000969 0.000000
0.001490 0.000968 0.000000
0.001490 0.000963 0.000000
0.001497 0.000958 0.000000
0.001501 0.000959 0.000000
0.001499 0.000952 0.000000
0.000024 0.000445 0.000000
0.000026 0.000450 0.000000
0.000024 0.000455 0.000000
0.000026 0.000461 0.000000
0.000021 0.000464 0.000000
0.000026 0.000472 0.000000
0.000022 0.000476 0.000000
0.000027 0.000481 0.000000
0.000023 0.000485 0.000000
0.000026 0.000488 0.000000
0.000026 0.000492 0.000000
0.000027 0.000500 0.000000
0.001408 0.001070 0.000000
0.001435 0.001041 0.000000
0.001439 0.001040 0.000000
0.001450 0.001021 0.000000
0.001446 0.001024 0.000000
0.001460 0.001013 0.000000
0.001457 0.001007 0.000000
0.001448 0.001018 0.000000
0.001453 0.001003 0.000000
0.001472 0.001002 0.000000
0.001467 0.000996 0.000000
0.001470 0.000997 0.000000
0.001478 0.000989 0.000000
0.001478 0.000982 0.000000
0.001487 0.000973 0.000000
0.001482 0.000975 0.000000
0.001494 0.000962 0.000000
0.001486 0.000965 0.000000
0.001494 0.000956 0.000000
0.001494 0.000949 0.000000
0.000030 0.000445 0.000000
0.000031 0.000450 0.000000
0.000029 0.000455 0.000000
0.000031 0.000459 0.000000
0.000031 0.000464 0.000000
0.000029 0.000468 0.000000
0.000031 0.000472 0.000000
0.000030 0.000477 0.000000
0.000030 0.000486 0.000000
0.000031 0.000492 0.000000
0.000033 0.000497 0.000000
0.000030 0.000499 0.000000
0.000048 0.000500 0.000000
0.001425 0.001042 0.000000
0.001434 0.001028 0.000000
0.001442 0.001025 0.000000
0.001438 0.001025 0.000000
0.001443 0.001020 0.000000
0.001448 0.001008 0.000000
0.001458 0.000995 0.000000
0.001460 0.001003 0.000000
0.001462 0.000997 0.000000
0.001470 0.000990 0.000000
0.001469 0.000976 0.000000
0.001474 0.000981 0.000000
0.001474 0.000976 0.000000
0.001477 0.000967 0.000000
0.001479 0.000971 0.000000
0.001483 0.000959 0.000000
0.001489 0.000958 0.000000
0.001491 0.000953 0.000000
0.001491 0.000946 0.000000
0.000035 0.000445 0.000000
0.000035 0.000450 0.000000
0.000034 0.000457 0.000000
0.000038 0.000454 0.000000
0.000035 0.000467 0.000000
0.000036 0.000472 0.000000
0.000032 0.000479 0.000000
0.000041 0.000479 0.000000
0.000034 0.000483 0.000000
0.000034 0.000488 0.000000
0.000037 0.000491 0.000000
0.000036 0.000498 0.000000
0.001368 0.001086 0.000000
0.001403 0.001072 0.000000
0.001431 0.001033 0.000000
0.001433 0.001022 0.000000
0.001446 0.001013 0.000000
0.001433 0.001013 0.000000
0.001452 0.001009 0.000000
0.001449 0.001004 0.000000
0.001456 0.001001 0.000000
0.001446 0.000994 0.000000
0.001452 0.000985 0.000000
0.001461 0.000979 0.000000
0.001469 0.000981 0.000000
0.001471 0.000971 0.000000
0.001481 0.000964 0.000000
0.001470 0.000958 0.000000
0.001482 0.000952 0.000000
0.001484 0.000956 0.000000
0.001487 0.000950 0.000000
0.001486 0.000944 0.000000
0.000040 0.000445 0.000000
0.000041 0.000450 0.000000
0.000036 0.000462 0.000000
0.000040 0.000458 0.000000
0.000041 0.000463 0.000000
0.000039 0.000468 0.000000
0.000041 0.000473 0.000000
0.000037 0.000477 0.000000
0.000041 0.000487 0.000000
0.000042 0.000491 0.000000
0.000041 0.000497 0.000000
0.000044 0.000498 0.000000
0.001213 0.001072 0.000000
0.001423 0.001050 0.000000
0.001423 0.001039 0.000000
0.001428 0.001020 0.000000
0.001441 0.001015 0.000000
0.001439 0.001011 0.000000
0.001443 0.001008 0.000000
0.001452 0.000997 0.000000
0.001456 0.000989 0.000000
0.001461 0.000988 0.000000
0.001455 0.000992 0.000000
0.001453 0.000975 0.000000
0.001461 0.000970 0.000000
0.001466 0.000966 0.000000
0.001474 0.000972 0.000000
0.001472 0.000965 0.000000
0.001477 0.000961 0.000000
0.001478 0.000955 0.000000
0.001483 0.000948 0.000000
0.001482 0.000941 0.000000
0.000044 0.000445 0.000000
0.000046 0.000450 0.000000
0.000045 0.000455 0.000000
0.000046 0.000461 0.000000
0.000044 0.000467 0.000000
0.000047 0.000474 0.000000
0.000045 0.000478 0.000000
0.000040 0.000483 0.000000
0.000051 0.000485 0.000000
0.000045 0.000483 0.000000
0.000048 0.000493 0.000000
0.000050 0.000498 0.000000
0.001220 0.001075 0.000000
0.001421 0.001059 0.000000
0.001436 0.001032 0.000000
0.001438 0.001018 0.000000
0.001434 0.001017 0.000000
0.001444 0.001001 0.000000
0.001440 0.001001 0.000000
0.001447 0.000997 0.000000
0.001446 0.000988 0.000000
0.001458 0.000983 0.000000
0.001464 0.000984 0.000000
0.001466 0.000972 0.000000
0.001459 0.000975 0.000000
0.001465 0.000964 0.000000
0.001474 0.000961 0.000000
0.001473 0.000954 0.000000
0.001473 0.000951 0.000000
0.001477 0.000949 0.000000
0.001479 0.000945 0.000000
0.001478 0.000939 0.000000
0.000049 0.000445 0.000000
0.000053 0.000450 0.000000
0.000049 0.000454 0.000000
0.000053 0.000455 0.000000
0.000048 0.000465 0.000000
0.000048 0.000471 0.000000
0.000053 0.000468 0.000000
0.000051 0.000478 0.000000
0.000047 0.000488 0.000000
0.000052 0.000491 0.000000
0.000057 0.000492 0.000000
0.000053 0.000498 0.000000
0.001312 0.001093 0.000000
0.001412 0.001059 0.000000
0.001420 0.001046 0.000000
0.001429 0.001023 0.000000
0.001435 0.001009 0.000000
0.001439 0.001005 0.000000
0.001432 0.001004 0.000000
0.001437 0.000998 0.000000
0.001441 0.000988 0.000000
0.001450 0.000991 0.000000
0.001446 0.000985 0.000000
0.001455 0.000981 0.000000
0.001452 0.000968 0.000000
0.001464 0.000977 0.000000
0.001460 0.000960 0.000000
0.001460 0.000953 0.000000
0.001466 0.000959 0.000000
0.001469 0.000947 0.000000
0.001474 0.000942 0.000000
0.001474 0.000936 0.000000
0.000053 0.000445 0.000000
0.000058 0.000450 0.000000
0.000055 0.000462 0.000000
0.000050 0.000460 0.000000
0.000060 0.000466 0.000000
0.000054 0.000473 0.000000
0.000057 0.000476 0.000000
0.000057 0.000480 0.000000
0.000052 0.000483 0.000000
0.000057 0.000486 0.000000
0.000056 0.000497 0.000000
0.000059 0.000496 0.000000
0.001335 0.001090 0.000000
0.001421 0.001061 0.000000
[...]
POINT_DATA 11907
SCALARS density float 1
LOOKUP_TABLE default
4427.854866
4430.135426
4425.486618
4429.379129
4431.645837
4426.975465
4437.228550
4428.371835
4432.249008
4420.573863
4429.490245
4405.218954
4430.674929
4419.614339
4415.636350
4443.558333
4440.601868
4437.040232
4452.789837
4454.885331
4427.393677
4411.578869
4398.792357
4447.479344
4424.510012
4435.888669
4450.107748
4419.696545
4438.022250
4451.975053
4429.407480
4402.174538
4431.853839
4430.990592
4429.875210
4425.805419
4431.525371
4419.932771
4424.272969
4419.997991
4421.453130
4426.755288
4449.727764
4408.438323
4411.420037
4419.538004
4424.868570
4411.901424
4425.100391
4438.138113
4450.321355
4471.454649
4434.473698
4419.528537
4419.194365
4398.510374
4436.137933
4388.937631
4436.165704
4456.538316
4429.643779
4431.559592
4415.863962
4397.304394
4421.057713
4426.690170
4433.279388
4421.320819
4431.919447
4425.763695
4456.284580
4400.372443
4470.622613
4383.962077
4448.368088
4403.438959
4469.188899
4444.967869
4433.093597
4397.372524
4415.717496
4412.067223
4469.557530
4451.753476
4435.015205
4370.259741
4426.627584
4435.213866
4397.607651
4457.526365
4422.159940
4374.546263
4413.157374
4425.776964
4444.822204
4414.137888
4424.772739
4437.593816
4444.118827
4418.173619
4416.146547
4449.630597
4448.945577
4389.032363
4463.011792
4387.619278
4509.011916
4406.221220
4434.453856
4387.434367
4411.641937
4466.944612
4452.739123
4438.106862
4448.690556
4373.992427
4449.792037
4427.914489
4429.380088
4431.544822
4398.647074
4481.189531
4428.988403
4491.676712
4435.033769
4379.182479
4494.536427
4433.190368
4436.362408
4421.037381
4441.746146
4430.004559
4406.942664
4432.894032
4436.643456
4434.367265
4479.420134
4373.329487
4461.298787
4433.136338
4418.057551
4433.572905
4465.219759
4381.898490
4467.217335
4395.714569
4453.774190
4439.551053
4430.998758
4383.924196
4416.620863
4445.778178
4432.061826
4426.804411
4461.916047
4473.835169
4423.719324
4410.104789
4391.444527
4423.326496
4432.776766
4429.266166
4438.968849
4414.198991
4439.711392
4420.600256
4453.525370
4383.336215
4419.736433
4459.767489
4426.431985
4422.802053
4435.187729
4434.087701
4364.860781
4437.374648
4398.770893
4460.861776
4366.135753
4466.235582
4466.172194
4452.470504
4456.682217
4445.993465
4438.001431
4440.080171
4373.585782
4418.674460
4419.550797
4413.346914
4463.920432
4426.167500
4422.843244
4431.196004
4416.589146
4440.403736
4432.032793
4449.193612
4398.297093
4450.882153
4448.019327
4409.653353
4450.261247
4417.640026
4415.883621
4446.835587
4460.127581
4457.283057
4413.652810
4428.638779
4438.354547
4398.391623
4449.618800
4448.071817
4408.284168
4450.227014
4462.947854
4391.628231
4409.016229
4448.295157
4452.390465
4416.980193
4396.917931
4448.698170
4427.044186
4435.413831
4440.523250
4424.805559
4428.195972
4436.732926
4442.889428
4431.251255
4399.290967
4430.019821
4418.768641
4444.872882
4415.387839
4424.601441
4385.993199
4415.804860
4408.770187
4469.663982
4446.983124
4428.434660
4431.875377
4449.206369
4397.680695
4434.021287
4390.642090
4448.809348
4408.466320
4375.002757
4445.411134
4425.916837
4415.892419
4417.365307
4431.251393
4428.179676
4413.904556
4445.060302
4423.782600
4439.668515
4426.307370
4427.752332
4450.201469
4427.446847
4435.254533
4421.114883
4435.820033
4455.157238
4392.159545
4438.455487
4435.248514
4455.777579
4445.910907
4402.552094
4450.510780
4410.900066
4461.644276
4413.740958
4407.878025
4433.539552
4420.268329
4426.454233
4468.554370
4368.578724
4446.209884
4427.405533
4430.320395
4419.901845
4417.757975
4452.057817
4420.548201
4439.339932
4437.094156
4433.800104
4456.638406
4414.160185
4473.800404
4432.897619
4435.392396
4439.417995
4411.892185
4442.626535
4383.634178
4387.850733
4463.481384
4483.569661
4449.999780
4429.829260
4427.822649
4414.129580
4433.118951
4441.075869
4446.792012
4458.451494
4454.154067
4424.481309
4413.530900
4448.313696
4426.567724
4411.263163
4460.063705
4419.833930
4430.223482
4452.631216
4402.074598
4383.624696
4391.515652
4417.866155
4517.273680
4411.835191
4437.160479
4428.979991
4405.662692
4453.692992
4367.798565
4418.042793
4433.194022
4424.697767
4404.224515
4403.407677
4469.326859
4435.377930
4405.285200
4436.007024
4420.405941
4417.930814
4432.765232
4415.266603
4422.355173
4423.430822
4438.510734
4426.088640
4474.726102
4406.545974
4416.525802
4445.818183
4429.350273
4419.653526
4473.951104
4356.356471
4416.116546
4401.938086
4435.700063
4428.827391
4437.776805
4414.212581
4423.938306
4455.555296
4381.665882
4413.890290
4447.003515
4414.644443
4428.141820
4444.637975
4458.645473
4424.652681
4478.817707
4404.898910
4442.526617
4426.362856
4440.292639
4421.431764
4420.219928
4405.975790
4451.944304
4434.075760
4387.493867
4430.892551
4429.926216
4381.357996
4447.299905
4425.536804
4445.183685
4436.319371
4423.745905
4432.270733
4424.146695
4365.586338
4396.295753
4438.160666
4448.545678
4480.415135
4444.718732
4455.480075
4432.289132
4430.026188
4437.547635
4452.849033
4433.462793
4410.622950
4429.565374
4411.024760
4440.497127
4437.443360
4442.829841
4435.208033
4430.982593
4443.033183
4447.724630
4420.312980
4403.395802
4465.677623
4473.085478
4401.523856
4428.605566
4439.123895
4417.115922
4428.699007
4396.018098
4366.898412
4430.676028
4391.593757
4455.817945
4399.709043
4439.856191
4415.883941
4471.989772
4414.866639
4443.120375
4462.167092
4411.216212
4407.860779
4443.187116
4446.132933
4413.920367
4421.385561
4417.170828
4443.806164
4435.761987
4440.754039
4426.919147
4399.904914
4397.379752
4437.561671
4395.351800
4450.544190
4435.650223
4453.084926
4424.760126
4440.365199
4420.380226
4466.939221
4445.076497
4430.895826
4428.829844
4454.688722
4397.629935
4422.604606
4405.022927
4417.014799
4445.797673
4432.550131
4431.240645
4416.940850
4444.988360
4410.756401
4443.823920
4436.318104
4433.446900
4444.342475
4418.119504
4435.854280
4405.707872
4462.874166
4448.394991
4433.374478
4432.444779
4383.386830
4399.555302
4450.215767
4424.993013
4430.408917
4431.970203
4452.599986
4449.036923
4386.493266
4401.475921
4435.142453
4376.063495
4402.167885
4424.609336
4427.505895
4397.976277
4428.798318
4420.266901
4435.994190
4446.460089
4401.039054
4440.255840
4419.403291
4422.090017
4431.947136
4438.988812
4403.630195
4445.390280
4400.557180
4442.291093
4450.825282
4417.969885
4377.147793
4420.679034
4425.196514
4422.138530
4424.627434
4433.191774
4442.035176
4476.576653
4428.583322
4413.331594
4440.005690
4435.866906
4448.531559
4388.532310
4489.125727
4408.510523
4443.561473
4445.331531
4408.096831
4418.797626
4451.029532
4424.188943
4443.335217
4435.728965
4419.260316
4442.738236
4416.504907
4460.754682
4401.532741
4422.599322
4446.551942
4382.755610
4503.542949
4438.051253
4447.415698
4425.029320
4428.589865
4444.322309
4438.050749
4470.659420
4425.542693
4512.159987
4492.939769
4423.192050
4445.825179
4422.032914
4406.565182
4445.500762
4390.365563
4415.676724
4451.392069
4448.531142
4427.481981
4426.163730
4427.465857
4414.213240
4421.968619
4444.247819
4439.426884
4449.036003
4443.990489
4456.985115
4460.590122
4450.785826
4438.112953
4391.970137
4423.016896
4419.944740
4426.176109
4428.361557
4448.268164
4421.648487
4445.413023
4432.361464
4432.586888
4415.522507
4453.912867
4462.852644
4376.436445
4459.524961
4432.168551
4430.930897
4417.631508
4419.169680
4414.959367
4429.167642
4429.550708
4451.172783
4424.169024
4420.882076
4427.818759
4409.164206
4385.507250
4436.102801
4430.620861
4441.120524
4428.332444
4430.462762
4431.298345
4413.105569
4442.086366
4444.048794
4480.576179
4428.247887
4470.767738
4464.807648
4435.143889
4482.336861
4430.421142
4389.372475
4393.215298
4396.108968
4383.962065
4449.781568
4439.621595
4430.456413
4447.508655
4441.203981
4437.611805
4434.592013
4438.967735
4437.337061
4420.337285
4438.298837
4459.852998
4392.040468
4410.713738
4466.894546
4456.335425
4410.332834
4497.905307
4423.808500
4412.337506
4399.570060
4475.943262
4440.609880
4430.758189
4348.508236
4438.923149
4410.871234
4441.578043
4475.439363
4431.694739
4464.352957
4464.249488
4432.716203
4378.392606
4445.854040
4406.405026
4410.643315
4430.513286
4440.841350
4426.621410
4443.438397
4434.268542
4422.950246
4402.188281
4425.464062
4450.218186
4443.693577
4371.388436
4438.040702
4432.725518
4440.816400
4419.684016
4439.882645
4437.415717
4444.236339
4437.729174
4457.059196
4430.714173
4419.687617
4341.586509
4470.965799
4447.878241
4441.648543
4446.848667
4410.790088
4456.462657
4436.877570
4435.056724
4445.901500
4430.776844
4404.514850
4435.158838
4402.122002
4423.678091
4462.926171
4426.121709
4434.607423
4474.885467
4419.560955
4414.637013
4385.585797
4462.848799
4432.431169
4467.705915
4397.269794
4441.397594
4433.488471
4433.415881
4426.570993
4437.825021
4442.702375
4401.463102
4349.833296
4488.967322
4433.221958
4395.251873
4447.381149
4441.526603
4444.785248
4417.319283
4434.791458
4419.348726
4440.487709
4427.834359
4427.392468
4426.761017
4416.354329
4428.384618
4423.629654
4409.739156
4403.022617
4445.176005
4443.572537
4430.564622
4462.757809
4420.812865
4436.769965
4400.626258
4366.048223
4390.156280
4426.167811
4380.485520
4367.136389
4450.149643
4426.065788
4375.899730
4440.594948
4434.854172
4420.529485
4406.596792
4407.952308
4459.327652
4443.674452
4428.785778
4428.693070
4430.433286
4430.722687
4430.921150
4430.788592
4430.269994
4429.860768
4429.434898
4429.580073
4430.192293
4431.359585
4431.858943
4431.501138
4431.117281
4430.567632
4429.432030
4430.168247
4429.152032
4428.777103
4429.448856
4430.581295
4432.082969
4433.097339
4433.408804
4432.089485
4429.638810
4428.205305
4428.883776
4430.283277
4430.611142
4429.573400
4430.116912
4431.300189
4431.968423
4431.614683
4430.229144
4428.848396
4427.487488
4427.379840
4428.595363
4431.781824
4433.363137
4431.930550
4430.185060
4428.891168
4430.152189
4429.991066
4428.821142
4428.241557
4428.611601
4430.279197
4431.588383
4433.461642
4433.373695
4432.314153
4428.850204
4426.828420
4427.210296
4428.818837
4429.070867
4429.952565
4429.833530
4431.289286
4431.976490
4431.542197
4430.057684
4428.521532
4426.780275
4426.660402
4427.903473
4431.113235
4433.139569
4432.095476
4429.599412
4429.638439
4430.033846
4429.687880
4429.000132
4427.443738
4428.868058
4429.398754
4431.829113
4432.483640
4433.838659
4430.972922
4429.513214
4425.599426
4428.302931
4428.481451
4429.804654
4429.781133
4429.635114
4431.275182
4431.705191
4431.487933
4429.679329
4428.324472
4426.356403
4426.361176
4427.656281
4430.503269
4432.912867
4431.518585
4429.048918
4429.340169
4429.844985
4429.707348
4428.677574
4427.569520
4428.248937
4429.632623
4431.060286
4432.790335
4432.935414
4431.341445
4428.724595
4425.596565
4427.107841
4428.176766
4428.518739
4429.249736
4429.781509
4430.826783
4431.657215
4431.324946
4429.406684
4428.226462
4425.917770
4426.395543
4427.082972
4430.490025
4432.605603
4431.693208
4429.408887
4431.004621
4429.697931
4429.570901
4428.538116
4427.354167
4428.133160
4429.319239
4430.990208
4432.383226
4432.769444
4430.869220
4428.740758
4425.239863
4427.775277
4427.527590
4429.743838
4429.187818
4429.657861
4430.751706
4431.561890
4430.895719
4429.567204
4427.512384
4426.228011
4425.932168
4427.059765
4429.944552
4432.458687
4430.788966
4428.024373
4425.250614
4429.460793
4429.667508
4428.130035
4427.289262
4427.824542
4429.074179
4430.818766
4432.247861
4432.341413
4431.072642
4427.872482
4425.817683
4425.815816
4427.849688
4429.881947
4429.027852
4429.472826
4430.622053
4431.368312
4430.652273
4429.395020
4427.397466
4425.943415
4426.071267
4426.721368
4429.953808
4432.533244
4431.982641
4429.210191
4428.343769
4464.979430
4429.657447
4418.182321
4438.875333
4437.779495
4465.974017
4432.164743
4408.432288
4403.226979
4461.549123
4473.551010
4403.487283
4467.738532
4478.988603
4454.489721
4426.260261
4429.190439
4429.414227
4428.223612
4426.663796
4427.993026
4428.597447
4430.780526
4431.963775
4432.122546
4430.496768
4428.923096
4424.948443
4428.476860
4429.715552
4433.117685
4424.297496
4405.108941
4437.328097
4421.757666
4423.253469
4440.412380
4436.031639
4446.502585
4398.527013
4391.280488
4436.445251
4413.370964
4439.776511
4344.587465
4480.064686
4408.910199
4428.627168
4429.325035
4430.407260
4431.070265
4430.667407
4428.843291
4427.758852
4425.199012
4426.624976
4426.376136
4429.424444
4433.154649
4431.146235
4429.269124
4431.508966
4439.786712
4404.039088
4398.126735
4434.751748
4413.588492
4448.450162
4413.067017
4419.811314
4417.243404
4442.674701
4458.303937
4420.421128
4444.337528
4458.577076
4419.607769
4412.653700
4428.991843
4429.430721
4427.884195
4426.735201
4427.474171
4429.035131
4429.940862
4432.455584
4430.744546
4430.980294
4428.477125
4424.276656
4427.801948
4427.330036
4427.942432
4425.604800
4411.870481
4427.462395
4397.869647
4399.081200
4450.039749
4440.388429
4415.085625
4432.909705
4441.214405
4416.118749
4418.576805
4387.833489
4406.849078
4435.258528
4453.006099
4428.525253
4429.454067
4429.978780
4431.163173
4430.340561
4429.018959
4427.341742
4425.318637
4426.292143
4426.024878
4428.837485
4433.197117
4429.233160
4428.092139
4428.019872
4434.213061
4434.727773
4441.883481
4461.268919
4439.665009
4437.801322
4438.135378
4484.351294
4427.357316
4436.123186
4396.466514
4437.075614
4462.229033
4416.866840
4435.116691
4418.873798
4428.546562
4429.328654
4427.739176
4426.712536
4427.287960
4429.028069
4429.945789
4432.056038
4430.551136
4430.611985
4428.104754
4424.148959
4427.310918
4426.940648
4426.400285
4422.160819
4431.359238
4426.885268
4394.592965
4476.193304
4398.615828
4421.483539
4454.935867
4469.411721
4413.243811
4421.589955
4458.504486
4448.678728
4406.672447
4453.477382
4418.547804
4428.558526
4429.531110
4429.712959
4431.157220
4430.089019
4429.186869
4426.829670
4425.901422
4425.933865
4426.140947
4428.437618
4433.019088
4428.842804
4428.726234
4427.897702
4425.366198
4407.162881
4453.610721
4440.092067
4343.293739
4438.708700
4419.362468
4422.350764
4424.650848
4435.790035
4421.204728
4452.645180
4412.256351
4458.573542
4460.677613
4421.499470
4428.314463
4429.291382
4427.478394
4426.753732
4426.931758
4428.919777
4429.785213
4431.935662
4430.358771
4430.613358
4428.037792
4424.513038
4427.238290
4427.558795
4426.433335
4430.720433
4397.188576
4380.089681
4377.769812
4386.071062
4484.418119
4438.833890
4422.254191
4420.686544
4439.466011
4442.245652
4400.359099
4421.296071
4384.970863
4466.367268
4408.427580
4428.336268
4429.232334
4429.777975
4430.632003
4430.348470
4428.511133
4427.177931
4425.649002
4426.695288
4425.684625
4428.765222
4432.949550
4429.918324
4428.852086
4428.856960
4443.780661
4446.411262
4389.610668
4407.203321
4442.225223
4435.109759
4434.709857
4427.686285
4475.922648
4466.724283
4389.727374
4412.546367
4439.682208
4388.337687
4436.183338
4401.644739
4428.271409
4428.865778
4427.749766
4426.303838
4427.198077
4428.393857
4429.906112
4431.534065
4430.488721
4430.227296
4428.310628
4424.490666
4427.909321
4426.898883
4428.602723
4449.389917
4437.278893
4429.801657
4444.218947
4375.587542
4419.945271
4427.558826
4442.419848
4383.285523
4424.466365
4439.085049
4480.417095
4402.817370
4387.562308
4429.254811
4445.226314
4428.181162
4429.121210
4429.577394
4430.519474
4430.260251
4428.322575
4427.090601
4425.933465
4426.889503
4425.456187
4428.411613
4432.914171
4429.835656
4428.898269
4427.661584
4422.144085
4445.257423
4402.763050
4451.070549
4432.572790
4432.736812
4448.376869
4473.061634
4418.687488
4429.823587
4413.911307
4425.042144
4472.784713
4410.384093
4468.829878
4407.650430
4428.106839
4429.028069
4427.389207
4426.762340
4426.580518
4428.887334
4429.221935
4431.634696
4430.095550
4430.216976
4427.436336
4424.564091
4425.951874
4426.421925
4424.713132
4435.222769
4487.022550
4443.083405
4401.389422
4415.674576
4420.076158
4445.542599
4414.111833
4467.655234
4450.382488
4410.777019
4426.153840
4441.536856
4421.104792
4398.007144
4413.118086
4428.017069
4429.382794
4429.046566
4430.818708
4430.111501
4428.347250
4426.950195
4426.521472
4426.464160
4425.566355
4427.622772
4432.381822
4428.256126
4427.646091
4425.336662
4423.030217
4450.919515
4447.003099
4447.980618
4423.170645
4432.700452
4447.280550
4430.966354
4433.433510
4441.466975
4422.015410
4416.906228
4428.041123
4378.798767
4476.716878
4446.781049
4427.900510
4429.157706
4427.253685
4426.957335
4426.355746
4429.171949
4428.953954
4431.574740
4429.797809
4429.996771
4427.106129
4424.730433
4425.665424
4425.632699
4426.676194
4405.104388
4445.181512
4404.840655
4424.635369
4443.593324
4431.756743
4432.654513
4426.615171
4408.315763
4449.795000
4434.131521
4419.423498
4396.109792
4432.427100
4380.795813
4447.220263
4427.860697
4429.450439
4428.863138
4431.027732
4429.786613
4428.383796
4426.759621
4427.076536
4426.354301
4425.930448
4427.353180
4431.907784
4428.567078
4427.084429
4425.522738
4428.215151
4418.833404
4415.362749
4458.305878
4397.125522
4411.204086
4424.519633
4444.676829
4431.986788
4434.434242
4437.493333
4403.249524
4443.322298
4462.469826
4424.345818
4400.479351
4428.092560
4429.040958
4427.483029
4426.680311
4426.760597
4428.541893
4429.140072
4431.756038
4429.646541
4430.018076
4427.371016
4425.310617
4425.524017
4425.901956
4424.570162
4425.997783
4416.358504
4431.229217
4414.537024
4409.651749
4441.229191
4418.553620
4427.530454
4417.502808
4451.588579
4498.476350
4402.107030
4456.900138
4449.113799
4470.534480
4425.118982
4428.036077
4429.187649
4429.200246
4430.722133
4429.734948
4428.268313
4427.105163
4426.850259
4427.469690
4425.794349
4427.160678
4432.269816
4429.181827
4427.546114
4426.188805
4432.661626
4419.831175
4446.505240
4436.228315
4390.095947
4431.911615
4451.749214
4434.099716
4455.269328
4420.398554
4483.864901
4448.028517
4412.114319
4434.771778
4461.455561
4422.536143
4428.424325
4429.108692
4427.530600
4426.827023
4426.700321
4428.439790
4429.118568
4431.730366
4429.929144
4429.588259
4428.159370
4425.068675
4426.639502
4425.337274
4426.177554
4441.021106
4447.642478
4435.162804
4453.152281
4387.215678
4417.497320
4443.538179
4382.548405
4452.453683
4441.454330
4443.757780
4457.710261
4461.343645
4447.767446
4421.681617
4411.025188
4428.202344
4428.925825
4429.392237
4430.272207
4430.417347
4427.524252
4427.839379
4426.774967
4428.055824
4425.398357
4427.447681
4432.740544
4428.254280
4427.001489
4426.681399
4446.084197
4449.521818
4406.211227
4463.323665
4386.902681
4436.135743
4438.936559
4421.114613
4469.249287
4446.860091
4462.829968
4401.810404
4410.583200
4464.243105
4425.320496
4426.856941
4428.301271
4429.476706
4427.406567
4427.263681
4426.248864
4429.516356
4428.616946
4431.642522
4430.632128
4429.850203
4427.535497
4425.949474
4425.509864
4425.085956
4424.802171
4433.115738
4434.711189
4412.060508
4375.739255
4428.971822
4443.974778
4439.920612
4423.061440
4386.301447
4446.897468
4399.815799
4416.771892
4429.838549
4387.250140
4417.743824
4449.526212
4428.222101
4429.472639
4428.427938
4431.434203
4429.952147
4428.526307
4427.583195
4428.714601
4426.922811
4425.817231
4428.313403
4431.455932
4428.065045
4427.787533
4426.374126
4419.534377
4399.269118
4414.085251
4428.109407
4455.772443
4421.956354
4434.396500
4495.539370
4405.259867
4407.308665
4429.461121
4411.204230
4480.885353
4423.363226
4561.300881
4413.480240
4428.353706
4429.310690
4428.045046
4426.953089
4427.032971
4429.051743
4428.577872
4431.931078
4430.512660
4429.454845
4427.474636
4427.235473
4426.387263
4426.197095
4423.290329
4445.882737
4425.679274
4447.109412
4432.549320
4461.702068
4462.883736
4440.791153
4455.593852
4477.340894
4431.538989
4449.574348
4441.307311
4447.900703
4443.762940
4277.460169
4429.100364
4428.660261
4429.617577
4428.548432
4431.316980
4429.637990
4428.345004
4427.128054
4428.990118
4426.509205
4426.964779
4428.301512
4430.791652
4427.324512
4427.770065
4425.033611
4423.090477
4381.685625
4381.038930
4406.877080
4444.016831
4412.653018
4434.963419
4442.192788
4432.673647
4434.387838
4396.733833
4444.425779
4441.397640
4417.680846
4388.405707
4404.674051