# vtk DataFile Version 2.0
mfree iwf
ASCII

DATASET UNSTRUCTURED_GRID
POINTS 9240 float
0.000000 0.000445 0.000000
0.000000 0.000450 0.000000
0.000000 0.000455 0.000000
0.000000 0.000460 0.000000
0.000000 0.000465 0.000000
0.000000 0.000470 0.000000
0.000000 0.000475 0.000000
0.000000 0.000480 0.000000
0.000001 0.000485 0.000000
0.000001 0.000490 0.000000
0.000000 0.000496 0.000000
0.000002 0.000500 0.000000
0.000268 0.000671 0.000000
0.000270 0.000680 0.000000
0.000291 0.000721 0.000000
0.000295 0.000726 0.000000
0.000295 0.000726 0.000000
0.000297 0.000731 0.000000
0.000302 0.000737 0.000000
0.000301 0.000736 0.000000
0.000307 0.000747 0.000000
0.000323 0.000769 0.000000
0.000328 0.000773 0.000000
0.000331 0.000776 0.000000
0.000335 0.000779 0.000000
0.000339 0.000782 0.000000
0.000343 0.000784 0.000000
0.000348 0.000788 0.000000
0.000351 0.000789 0.000000
0.000356 0.000793 0.000000
0.000362 0.000797 0.000000
0.000383 0.000813 0.000000
0.000005 0.000445 0.000000
0.000005 0.000450 0.000000
0.000005 0.000455 0.000000
0.000005 0.000460 0.000000
0.000005 0.000465 0.000000
0.000005 0.000470 0.000000
0.000005 0.000475 0.000000
0.000005 0.000480 0.000000
0.000005 0.000485 0.000000
0.000006 0.000490 0.000000
0.000004 0.000496 0.000000
0.000006 0.000499 0.000000
0.000289 0.000717 0.000000
0.000300 0.000723 0.000000
0.000313 0.000751 0.000000
0.000316 0.000757 0.000000
0.000319 0.000761 0.000000
0.000322 0.000764 0.000000
0.000325 0.000766 0.000000
0.000328 0.000768 0.000000
0.000334 0.000772 0.000000
0.000338 0.000775 0.000000
0.000344 0.000779 0.000000
0.000349 0.000783 0.000000
0.000355 0.000786 0.000000
0.000361 0.000791 0.000000
0.000364 0.000794 0.000000
0.000369 0.000796 0.000000
0.000374 0.000804 0.000000
0.000377 0.000807 0.000000
0.000373 0.000805 0.000000
0.000382 0.000811 0.000000
0.000010 0.000445 0.000000
0.000011 0.000450 0.000000
0.000010 0.000455 0.000000
0.000011 0.000460 0.000000
0.000010 0.000466 0.000000
0.000010 0.000469 0.000000
0.000011 0.000476 0.000000
0.000011 0.000480 0.000000
0.000010 0.000486 0.000000
0.000012 0.000490 0.000000
0.000009 0.000497 0.000000
0.000011 0.000498 0.000000
0.000294 0.000716 0.000000
0.000303 0.000724 0.000000
0.000308 0.000738 0.000000
0.000310 0.000745 0.000000
0.000312 0.000749 0.000000
0.000316 0.000753 0.000000
0.000320 0.000748 0.000000
0.000325 0.000757 0.000000
0.000327 0.000761 0.000000
0.000332 0.000766 0.000000
0.000337 0.000768 0.000000
0.000341 0.000774 0.000000
0.000346 0.000773 0.000000
0.000352 0.000777 0.000000
0.000353 0.000782 0.000000
0.000360 0.000788 0.000000
0.000372 0.000797 0.000000
0.000373 0.000800 0.000000
0.000380 0.000806 0.000000
0.000386 0.000806 0.000000
0.000015 0.000445 0.000000
0.000016 0.000450 0.000000
0.000015 0.000456 0.000000
0.000016 0.000459 0.000000
0.000015 0.000465 0.000000
0.000016 0.000471 0.000000
0.000014 0.000475 0.000000
0.000017 0.000480 0.000000
0.000015 0.000485 0.000000
0.000017 0.000489 0.000000
0.000015 0.000495 0.000000
0.000017 0.000498 0.000000
0.000025 0.000500 0.000000
0.000303 0.000728 0.000000
0.000310 0.000740 0.000000
0.000314 0.000739 0.000000
0.000322 0.000752 0.000000
0.000319 0.000757 0.000000
0.000331 0.000756 0.000000
0.000332 0.000761 0.000000
0.000340 0.000761 0.000000
0.000341 0.000769 0.000000
0.000352 0.000771 0.000000
0.000348 0.000777 0.000000
0.000358 0.000780 0.000000
0.000362 0.000783 0.000000
0.000366 0.000786 0.000000
0.000367 0.000789 0.000000
0.000372 0.000792 0.000000
0.000379 0.000796 0.000000
0.000380 0.000800 0.000000
0.000389 0.000803 0.000000
0.000020 0.000445 0.000000
0.000021 0.000450 0.000000
0.000020 0.000456 0.000000
0.000021 0.000460 0.000000
0.000019 0.000466 0.000000
0.000022 0.000467 0.000000
0.000020 0.000475 0.000000
0.000022 0.000479 0.000000
0.000019 0.000486 0.000000
0.000022 0.000491 0.000000
0.000021 0.000497 0.000000
0.000022 0.000499 0.000000
0.000039 0.000500 0.000000
0.000310 0.000725 0.000000
0.000311 0.000732 0.000000
0.000315 0.000735 0.000000
0.000316 0.000744 0.000000
0.000324 0.000746 0.000000
0.000329 0.000753 0.000000
0.000336 0.000762 0.000000
0.000336 0.000755 0.000000
0.000344 0.000765 0.000000
0.000350 0.000763 0.000000
0.000358 0.000769 0.000000
0.000360 0.000774 0.000000
0.000363 0.000779 0.000000
0.000369 0.000781 0.000000
0.000376 0.000787 0.000000
0.000376 0.000792 0.000000
0.000384 0.000795 0.000000
0.000385 0.000800 0.000000
0.000391 0.000800 0.000000
0.000025 0.000445 0.000000
0.000026 0.000450 0.000000
0.000026 0.000455 0.000000
0.000025 0.000458 0.000000
0.000025 0.000466 0.000000
0.000026 0.000471 0.000000
0.000023 0.000476 0.000000
0.000027 0.000480 0.000000
0.000024 0.000485 0.000000
0.000026 0.000489 0.000000
0.000027 0.000492 0.000000
0.000027 0.000500 0.000000
0.000278 0.000697 0.000000
0.000307 0.000729 0.000000
0.000307 0.000734 0.000000
0.000320 0.000742 0.000000
0.000325 0.000741 0.000000
0.000327 0.000749 0.000000
0.000338 0.000748 0.000000
0.000332 0.000749 0.000000
0.000341 0.000757 0.000000
0.000345 0.000760 0.000000
0.000347 0.000768 0.000000
0.000352 0.000766 0.000000
0.000356 0.000774 0.000000
0.000367 0.000776 0.000000
0.000372 0.000785 0.000000
0.000373 0.000780 0.000000
0.000381 0.000792 0.000000
0.000381 0.000786 0.000000
0.000388 0.000794 0.000000
0.000394 0.000796 0.000000
0.000030 0.000445 0.000000
0.000031 0.000450 0.000000
0.000029 0.000458 0.000000
0.000033 0.000461 0.000000
0.000029 0.000464 0.000000
0.000031 0.000469 0.000000
0.000031 0.000473 0.000000
0.000031 0.000477 0.000000
0.000031 0.000486 0.000000
0.000031 0.000492 0.000000
0.000033 0.000497 0.000000
0.000031 0.000499 0.000000
0.000049 0.000500 0.000000
0.000304 0.000718 0.000000
0.000319 0.000730 0.000000
0.000321 0.000736 0.000000
0.000324 0.000737 0.000000
0.000329 0.000744 0.000000
0.000339 0.000752 0.000000
0.000345 0.000754 0.000000
0.000345 0.000750 0.000000
0.000353 0.000758 0.000000
0.000357 0.000764 0.000000
0.000363 0.000770 0.000000
0.000367 0.000769 0.000000
0.000368 0.000774 0.000000
0.000373 0.000775 0.000000
0.000377 0.000782 0.000000
0.000387 0.000784 0.000000
0.000387 0.000789 0.000000
0.000391 0.000791 0.000000
0.000396 0.000793 0.000000
0.000035 0.000445 0.000000
0.000035 0.000450 0.000000
0.000038 0.000454 0.000000
0.000034 0.000456 0.000000
0.000035 0.000466 0.000000
0.000037 0.000471 0.000000
0.000033 0.000479 0.000000
0.000041 0.000479 0.000000
0.000035 0.000484 0.000000
0.000035 0.000488 0.000000
0.000038 0.000491 0.000000
0.000036 0.000498 0.000000
0.000266 0.000658 0.000000
0.000277 0.000695 0.000000
0.000315 0.000723 0.000000
0.000324 0.000731 0.000000
0.000332 0.000740 0.000000
0.000334 0.000736 0.000000
0.000335 0.000744 0.000000
0.000342 0.000745 0.000000
0.000348 0.000757 0.000000
0.000351 0.000752 0.000000
0.000359 0.000760 0.000000
0.000363 0.000762 0.000000
0.000364 0.000765 0.000000
0.000377 0.000771 0.000000
0.000379 0.000777 0.000000
0.000383 0.000776 0.000000
0.000384 0.000781 0.000000
0.000390 0.000783 0.000000
0.000394 0.000787 0.000000
0.000399 0.000789 0.000000
0.000040 0.000445 0.000000
0.000040 0.000450 0.000000
0.000038 0.000460 0.000000
0.000042 0.000457 0.000000
0.000040 0.000465 0.000000
0.000040 0.000469 0.000000
0.000043 0.000475 0.000000
0.000037 0.000476 0.000000
0.000042 0.000487 0.000000
0.000043 0.000492 0.000000
0.000042 0.000497 0.000000
0.000045 0.000498 0.000000
0.000265 0.000548 0.000000
0.000299 0.000718 0.000000
0.000311 0.000720 0.000000
0.000327 0.000723 0.000000
0.000329 0.000736 0.000000
0.000337 0.000740 0.000000
0.000343 0.000741 0.000000
0.000347 0.000746 0.000000
0.000355 0.000749 0.000000
0.000356 0.000757 0.000000
0.000359 0.000753 0.000000
0.000368 0.000760 0.000000
0.000371 0.000764 0.000000
0.000376 0.000766 0.000000
0.000373 0.000770 0.000000
0.000382 0.000773 0.000000
0.000388 0.000776 0.000000
0.000393 0.000779 0.000000
0.000397 0.000783 0.000000
0.000402 0.000785 0.000000
0.000045 0.000445 0.000000
0.000046 0.000450 0.000000
0.000045 0.000455 0.000000
0.000046 0.000460 0.000000
0.000045 0.000466 0.000000
0.000045 0.000471 0.000000
0.000046 0.000478 0.000000
0.000040 0.000483 0.000000
0.000051 0.000485 0.000000
0.000046 0.000483 0.000000
0.000048 0.000493 0.000000
0.000051 0.000498 0.000000
0.000265 0.000554 0.000000
0.000288 0.000714 0.000000
0.000315 0.000729 0.000000
0.000329 0.000730 0.000000
0.000332 0.000730 0.000000
0.000341 0.000736 0.000000
0.000349 0.000740 0.000000
0.000350 0.000745 0.000000
0.000356 0.000748 0.000000
0.000364 0.000751 0.000000
0.000364 0.000756 0.000000
0.000374 0.000761 0.000000
0.000369 0.000755 0.000000
0.000381 0.000764 0.000000
0.000384 0.000768 0.000000
0.000388 0.000771 0.000000
0.000393 0.000773 0.000000
0.000396 0.000776 0.000000
0.000400 0.000779 0.000000
0.000405 0.000781 0.000000
0.000050 0.000445 0.000000
0.000051 0.000450 0.000000
0.000049 0.000455 0.000000
0.000051 0.000460 0.000000
0.000050 0.000465 0.000000
0.000051 0.000473 0.000000
0.000050 0.000470 0.000000
0.000051 0.000478 0.000000
0.000047 0.000488 0.000000
0.000053 0.000491 0.000000
0.000058 0.000492 0.000000
0.000053 0.000498 0.000000
0.000265 0.000597 0.000000
0.000291 0.000708 0.000000
0.000301 0.000715 0.000000
0.000324 0.000725 0.000000
0.000337 0.000728 0.000000
0.000338 0.000732 0.000000
0.000347 0.000732 0.000000
0.000345 0.000737 0.000000
0.000360 0.000741 0.000000
0.000355 0.000743 0.000000
0.000366 0.000749 0.000000
0.000374 0.000752 0.000000
0.000373 0.000756 0.000000
0.000378 0.000759 0.000000
0.000384 0.000762 0.000000
0.000388 0.000764 0.000000
0.000393 0.000768 0.000000
0.000398 0.000771 0.000000
0.000403 0.000775 0.000000
0.000408 0.000777 0.000000
0.000055 0.000445 0.000000
0.000056 0.000450 0.000000
0.000055 0.000455 0.000000
0.000056 0.000460 0.000000
0.000055 0.000465 0.000000
0.000056 0.000470 0.000000
0.000056 0.000476 0.000000
0.000058 0.000481 0.000000
0.000054 0.000483 0.000000
0.000057 0.000487 0.000000
0.000056 0.000497 0.000000
0.000060 0.000497 0.000000
0.000265 0.000622 0.000000
0.000286 0.000712 0.000000
0.000295 0.000713 0.000000
[...]
POINT_DATA 9240
SCALARS density float 1
LOOKUP_TABLE default
4429.478807
4429.318461
4427.068756
4425.875841
4422.760911
4429.786741
4444.609856
4435.181226
4441.450802
4422.755304
4432.543177
4398.030726
4431.035189
4442.081013
4449.995382
4429.421389
4440.586361
4442.985942
4450.671363
4451.021911
4433.786129
4429.300098
4406.060672
4446.440870
4426.558531
4420.400776
4445.216151
4432.462304
4419.388957
4451.065643
4441.252539
4448.619372
4429.758241
4426.715652
4426.005324
4433.420142
4438.969563
4412.609028
4406.471483
4413.923672
4411.333718
4419.229145
4446.601267
4400.355753
4420.332236
4445.660371
4407.493962
4422.957386
4411.752849
4409.692309
4430.631099
4451.635459
4425.271934
4437.250874
4431.925780
4400.408219
4437.568164
4395.706135
4392.247305
4414.741704
4408.716389
4417.209530
4411.864375
4420.494438
4423.181083
4433.693135
4439.222839
4411.906552
4435.003167
4435.048531
4463.513446
4408.431297
4476.021825
4367.423703
4473.457919
4404.769502
4390.765534
4467.105688
4435.252546
4390.941602
4417.096767
4423.659712
4432.872932
4399.472604
4443.769036
4406.515027
4408.461091
4414.572161
4402.025939
4409.566478
4448.791107
4394.790767
4442.417983
4424.376082
4448.306605
4407.343672
4432.360908
4447.336637
4448.672346
4441.132648
4435.157888
4378.445371
4455.123326
4363.030414
4472.446692
4388.914837
4515.306082
4399.645409
4436.733596
4350.599839
4436.184302
4440.826897
4398.951661
4471.775442
4445.161693
4419.670321
4432.617280
4428.461395
4427.287387
4456.258820
4416.792634
4449.609120
4460.447777
4492.785306
4449.533959
4374.725258
4518.699106
4450.089949
4435.089589
4416.155335
4432.216417
4405.759645
4463.733459
4445.800138
4453.144474
4450.120626
4466.669948
4367.009821
4473.239493
4439.974956
4420.028558
4390.566415
4463.034712
4382.459405
4524.159968
4444.900718
4429.403775
4457.097628
4414.692360
4418.854555
4413.418460
4434.035804
4428.563126
4410.820062
4383.084657
4463.445692
4440.393962
4439.195066
4327.332130
4448.594460
4427.834655
4432.684526
4425.850985
4443.012074
4444.044435
4388.762804
4461.924718
4367.084148
4431.298740
4463.485040
4413.027652
4426.527971
4433.734338
4483.338340
4375.176957
4350.628462
4467.351186
4443.944248
4446.586863
4424.966419
4407.256120
4443.598049
4453.335150
4439.188133
4457.117973
4444.901396
4365.982883
4474.763371
4458.932365
4381.838506
4444.962218
4417.211282
4435.627181
4418.693943
4422.407587
4440.612792
4416.148827
4450.199916
4436.362668
4462.218336
4444.171157
4394.401440
4460.402572
4423.325906
4423.313075
4428.129823
4445.962066
4473.199632
4431.303557
4382.937906
4439.743772
4457.644288
4427.766034
4443.821159
4411.822097
4407.669841
4423.545743
4433.283322
4392.671002
4444.125443
4471.685599
4406.595178
4407.492752
4439.167634
4437.712878
4422.531704
4426.734403
4415.831086
4424.354244
4409.172420
4445.385720
4450.973759
4422.133455
4432.739773
4416.813308
4446.925128
4436.111900
4426.643523
4420.697963
4378.485774
4458.013044
4427.338640
4438.690931
4409.702909
4437.066411
4379.745978
4428.221039
4424.018035
4453.395824
4436.430072
4422.706979
4455.640219
4422.924619
4447.462726
4411.105120
4425.898796
4425.376330
4432.172160
4438.369951
4395.151538
4426.472573
4446.226543
4446.596038
4407.847112
4449.323263
4435.065138
4431.437716
4420.117246
4624.137382
4366.486364
4445.988977
4445.245611
4399.950105
4427.598882
4431.720124
4443.707739
4469.301680
4445.990796
4409.918954
4430.010848
4421.834810
4423.900013
4444.784558
4442.280068
4388.402474
4420.099110
4418.252049
4437.186234
4430.338927
4410.612971
4436.641037
4424.657355
4442.532682
4392.305163
4435.572027
4425.658924
4459.506658
4413.117624
4470.914639
4439.730536
4509.510628
4412.211851
4437.089177
4463.280177
4443.127713
4437.579342
4411.211450
4432.356492
4443.284442
4448.546417
4424.051472
4426.778541
4411.260978
4421.079181
4412.031395
4432.584495
4448.015818
4459.829008
4423.374657
4415.158618
4435.419871
4422.134746
4428.071252
4444.102693
4409.390012
4460.964431
4444.080417
4387.676976
4383.420064
4403.392392
4543.823216
4411.306943
4473.640685
4481.242399
4448.604996
4446.493616
4430.095419
4428.203806
4424.823727
4450.546610
4451.678459
4411.987743
4452.636044
4434.428762
4442.032077
4442.845435
4451.877135
4456.005756
4437.941958
4402.173130
4430.844578
4430.946802
4429.677024
4427.003615
4420.472872
4427.766301
4413.659589
4446.932331
4399.158744
4432.709335
4488.447012
4351.459438
4418.211881
4388.549298
4435.435582
4412.963459
4513.033297
4434.473453
4457.392384
4427.601862
4410.275834
4454.982532
4413.458702
4450.816149
4435.971590
4414.805356
4418.326848
4410.662488
4426.733721
4419.784160
4455.426535
4433.152409
4431.226370
4418.041932
4427.825585
4412.170681
4441.738857
4403.333669
4446.842326
4421.679086
4423.895650
4414.151833
4476.732342
4420.009427
4442.360820
4433.157450
4410.402608
4423.169869
4443.510692
4400.056717
4383.761051
4428.351917
4442.309455
4452.048349
4410.528998
4451.807075
4408.527948
4454.739181
4430.965732
4446.890586
4439.047525
4460.315740
4411.834137
4421.858564
4421.297859
4430.706125
4434.769491
4416.360091
4413.380724
4438.779989
4437.491205
4413.120671
4464.677705
4402.561425
4444.157590
4361.186402
4471.661376
4429.687968
4477.758732
4427.550883
4434.236011
4389.533988
4434.455073
4424.137424
4433.976862
4460.136068
4401.503683
4441.346758
4431.699569
4443.196526
4397.788331
4439.273068
4395.747817
4442.506244
4429.689992
4440.354610
4424.569115
4425.680680
4425.322525
4426.129152
4428.209159
4397.167155
4414.702679
4446.242778
4411.096403
4443.168117
4386.454741
4395.225878
4436.214418
4458.251345
4632.167859
4418.880647
4415.040347
4463.538791
4451.274038
4408.272402
4447.724645
4454.315140
4383.297388
4449.982168
4402.372967
4441.032038
4395.863199
4451.291979
4425.466558
4441.086693
4422.441633
4421.941527
4423.655289
4427.263352
4440.736206
4415.686138
4424.248063
4446.819408
4434.010277
4392.695062
4435.878716
4459.167806
4485.152193
4348.298911
4419.506705
4453.224202
4425.728254
4419.536990
4425.315394
4356.752201
4438.851130
4486.522101
4439.848671
4435.195824
4435.704361
4491.205571
4443.101501
4423.356267
4471.897886
4454.150434
4445.100484
4416.920910
4420.305166
4434.764615
4424.242981
4424.693881
4426.123327
4422.437509
4444.141606
4405.179442
4435.291421
4458.068666
4438.125318
4403.387478
4453.199262
4507.879213
4406.041602
4422.773021
4420.607112
4436.121115
4479.399366
4429.131977
4445.883677
4427.780320
4450.143601
4419.011462
4409.913067
4479.068206
4397.584309
4441.897526
4446.249278
4442.731482
4411.177119
4444.371945
4437.737221
4434.420141
4427.324155
4426.861335
4447.026758
4421.823706
4417.321283
4453.918199
4448.840725
4386.658034
4451.637321
4439.667768
4384.954623
4382.779313
4443.770570
4461.700305
4492.820642
4493.016792
4469.859291
4439.776394
4427.356690
4385.057952
4466.456903
4468.053726
4449.977720
4474.686274
4445.222096
4401.075081
4417.419107
4462.739128
4411.058032
4425.872666
4408.754493
4428.823835
4428.447356
4430.858855
4415.586214
4429.307035
4451.924251
4402.077679
4408.518641
4452.004559
4455.527236
4455.246724
4435.862273
4436.891287
4397.614955
4423.320500
4412.987679
4418.118136
4421.024531
4388.836295
4430.100928
4406.319092
4453.320485
4409.747372
4405.131799
4419.344061
4437.533286
4415.570760
4471.413304
4407.413506
4464.832045
4431.310017
4447.898083
4441.451793
4412.742293
4427.237904
4446.678146
4429.863624
4406.823408
4449.797319
4430.135462
4425.814625
4419.064841
4414.100035
4470.329325
4436.434432
4428.317383
4430.614793
4405.477517
4408.417919
4468.368291
4423.765600
4417.471942
4450.496790
4433.844954
4387.392245
4490.682085
4398.831015
4423.689064
4408.691391
4465.425561
4402.400615
4426.126283
4416.321038
4406.911227
4430.461966
4426.361876
4427.539145
4413.357750
4420.654450
4437.161156
4403.089650
4425.050949
4415.267197
4395.676362
4398.905938
4450.386418
4487.156309
4377.963880
4558.070039
4416.182869
4423.521885
4450.897450
4467.357710
4412.432947
4442.847252
4405.235701
4469.439519
4437.359940
4488.672701
4447.221869
4426.760971
4443.740803
4454.754343
4410.440674
4485.364722
4438.086198
4408.619054
4437.293796
4421.434069
4449.645215
4447.280934
4411.777748
4428.388471
4450.985124
4423.424244
4442.139664
4415.268882
4471.077484
4386.248342
4429.677127
4428.081234
4467.101664
4418.156466
4426.411185
4400.004392
4434.389064
4478.161070
4496.075421
4462.665892
4410.114204
4358.193183
4444.338718
4476.736716
4447.233310
4418.473532
4433.021478
4425.291641
4421.247760
4427.561659
4427.414432
4433.538793
4422.921532
4427.432853
4435.389535
4449.203676
4407.027312
4401.390988
4429.214719
4405.647107
4450.060603
4377.941047
4361.525755
4492.245664
4424.524334
4456.935860
4434.335417
4422.187873
4452.986329
4447.966133
4428.965630
4418.404496
4387.232259
4399.118496
4378.257995
4452.514715
4417.089948
4414.703819
4458.877376
4436.700999
4473.502535
4419.831979
4409.798775
4425.977365
4441.509618
4438.017393
4399.671323
4414.580140
4411.308345
4421.752332
4428.822976
4439.530715
4456.902498
4459.459117
4418.780724
4428.115574
4384.646128
4389.686357
4364.472635
4331.293592
4489.095409
4462.771894
4430.595746
4404.664298
4447.151145
4435.354721
4405.179745
4400.735847
4459.619357
4448.310534
4422.767379
4432.063620
4422.637689
4408.075096
4453.682163
4424.147279
4416.696729
4428.301487
4427.840787
4428.336885
4428.925411
4429.015941
4429.455769
4429.552254
4429.939927
4430.090733
4430.548927
4430.627651
4430.849217
4430.789459
4430.016914
4420.262536
4426.971134
4427.008667
4427.875782
4428.445794
4428.721880
4429.314984
4429.363178
4429.904098
4429.792188
4430.100858
4430.120473
4430.402966
4430.597976
4430.618242
4423.034974
4426.894111
4426.711126
4427.283870
4428.168112
4428.115801
4428.781588
4428.748362
4429.331127
4429.309913
4430.059671
4429.736579
4429.782899
4429.940106
4429.227877
4424.270322
4427.183630
4427.117998
4427.610707
4428.180709
4428.345815
4428.871684
4428.960797
4429.283219
4429.217017
4429.199512
4428.989146
4429.460190
4428.423329
4429.583098
4425.715160
4427.409066
4427.352950
4427.398553
4428.016458
4427.884079
4428.526449
4428.273612
4428.918238
4428.723793
4429.434937
4428.926083
4429.424337
4427.802759
4428.370679
4426.099873
4427.686323
4427.707789
4427.540872
4428.424004
4428.011495
4428.841894
4428.435338
4429.216076
4428.448967
4429.070964
4428.269444
4428.649535
4427.776821
4428.563269
4426.487398
4427.926956
4427.602582
4427.737553
4427.905438
4427.904320
4428.259750
4428.193619
4428.439276
4428.687532
4428.879895
4428.837609
4428.827122
4427.634622
4428.337105
4426.813237
4428.160662
4427.763174
4427.936035
4428.152330
4428.320521
4428.353683
4428.616620
4428.686446
4428.587704
4428.587001
4428.394017
4428.562770
4427.555555
4428.534159
4426.811067
4428.126984
4427.815485
4427.780344
4427.997961
4427.772503
4428.238568
4427.963891
4428.406109
4428.372413
4429.094769
4428.785126
4429.397565
4428.757650
4427.824507
4427.177604
4428.248161
4427.923894
4427.970751
4428.201268
4428.194773
4428.352618
4428.381184
4428.544242
4428.560068
4428.390885
4428.983584
4428.980370
4429.429190
4431.012727
4426.918092
4428.279966
4427.807789
4427.864840
4427.848887
4427.873259
4427.878231
4427.968697
4428.055692
4428.268369
4428.941662
4428.794664
4430.263773
4429.744971
4430.754338
4427.077227
4428.425790
4427.743128
4428.109207
4428.057962
4428.066711
4428.204280
4428.081954
4428.382350
4428.142461
4428.334226
4428.410750
4429.123901
4429.570054
4431.098524
4427.155456
4428.247865
4427.885528
4427.858287
4427.687544
4427.853531
4427.595698
4427.855801
4427.644311
4428.077290
4428.031638
4428.478055
4428.814931
4429.508336
4429.939353
4435.793712
4432.352187
4412.401293
4461.303503
4448.721550
4449.160149
4430.614150
4444.239880
4412.614356
4436.751806
4404.283301
4460.497571
4409.392588
4449.737901
4424.117602
4410.757749
4427.214153
4428.300117
4427.893598
4427.882376
4428.076025
4427.841050
4427.976269
4427.883289
4427.876116
4427.615859
4427.635678
4427.517088
4427.134048
4427.976985
4427.893813
4425.277619
4453.099667
4416.393394
4428.732484
4417.665649
4434.086508
4408.375350
4435.302039
4450.873712
4437.847244
4420.480578
4450.083111
4423.620226
4455.709935
4391.468220
4399.913018
4426.949080
4428.117929
4427.923146
4427.667294
4427.776580
4427.319548
4427.800346
4426.932459
4427.646592
4427.029981
4427.635284
4426.989480
4427.730349
4426.144749
4428.101100
4420.604529
4446.581930
4437.948510
4409.448579
4395.010631
4445.102236
4446.815451
4421.110591
4424.296071
4408.545567
4434.732880
4415.127218
4415.726938
4451.802732
4373.413066
4439.936059
4427.113255
4428.187268
4428.002723
4427.567641
4428.053413
4427.610881
4427.669066
4427.565436
4427.499095
4426.918884
4427.225288
4426.011700
4426.678689
4423.937242
4426.923100
4418.411353
4414.988996
4405.134509
4374.224115
4395.665959
4447.076738
4410.453935
4459.319599
4429.968594
4406.884717
4418.151321
4418.444329
4392.923598
4417.990384
4418.502757
4424.207406
4426.785790
4428.273986
4427.590972
4427.844287
4427.455183
4427.243475
4427.455188
4426.862415
4427.071703
4426.892675
4426.644116
4425.967992
4425.889629
4423.985457
4422.006163
4440.531042
4457.635147
4420.680933
4432.862084
4456.189493
4428.470024
4462.814070
4438.918342
4411.193145
4399.775659
4443.889046
4449.910033
4402.356119
4366.431830
4435.834880
4408.753897
4426.877682
4428.330897
4427.679509
4427.776089
4427.528046
4427.778212
4427.300238
4427.414544
4427.255475
4426.538571
4426.379820
4425.860194
4424.887680
4423.772023
4422.701534
4417.174313
4395.209322
4451.204684
4438.536606
4489.648291
4377.136961
4463.205999
4393.483821
4401.134305
4381.704943
4371.891569
4446.805061
4399.339159
4454.384162
4440.414332
4426.313200
4427.085902
4428.044062
4427.899474
4427.442314
4427.666938
4427.101856
4427.251302
4427.219451
4426.487607
4427.134807
4425.964057
4425.896696
4425.539277
4423.933448
4423.556316
4450.895809
4443.435634
4448.871154
4381.528929
4338.439914
4442.729406
4581.114201
4425.712042
4449.011326
4419.028185
4419.194640
4430.494058
4495.997803
4438.280958
4483.352704
4412.339881
4426.983681
4428.268140
4427.699015
4427.807086
4427.525532
4427.588878
4427.696612
4426.867354
4427.669859
4426.063520
4426.981317
4425.713930
4425.759142
4425.458790
4424.913016
4434.488323
4419.373654
4430.100390
4402.450161
4408.105699
4460.600075
4485.145325
4463.605873
4388.656235
4423.080154
4444.223156
4399.639325
4387.321263
4454.031552
4411.551973
4427.572312
4426.956289
4428.060787
4427.909080
4427.315828
4427.910515
4427.090889
4427.579615
4426.984394
4427.213467
4426.636822
4426.805029
4426.398269
4426.497279
4426.331377
4426.585298
4431.500227
4454.772086
4397.101471
4438.820608
4409.162771
4432.353729
4433.108787
4414.357102
4430.844498
4408.393707
4437.376860
4381.332779
4413.678348
4451.282373
4407.119854
4419.297919
4427.132346
4428.044160
4428.110222
4427.467504
4428.056765
4427.351388
4427.818953
4427.229527
4427.012303
4426.847623
4426.833671
4425.910804
4427.313576
4425.436762
4426.728389
4429.171046
4426.922135
4442.698378
4438.945874
4370.875376
4403.413201
4509.281590
4462.723894
4445.581378
4380.208316
4438.381280
4457.923769
4402.747848
4444.437182
4423.910627
4434.688467
4427.139053
4428.308857
4427.737344
4427.935784
4427.464234
4427.603209
4427.432100
4426.707921
4427.608947
4426.181667
4427.128444
4426.687358
4426.174843
4425.332595
4425.571057
4428.173323
4412.921353
4442.294532
4413.085666
4450.656822
4429.877728
4479.660642
4468.053194
4441.659705
4452.890576
4388.646056
4453.230284
4438.385604
4443.871161
4375.067037
4406.849197
4427.313005
4428.309699
4427.955631
4427.597305
4428.038734
4427.282633
4427.658189
4427.328257
4426.869455
4427.128143
4427.244935
4426.135501
4426.841409
4425.380119
4423.625492
4440.236937
4453.470519
4424.137059
4427.144189
4395.311705
4420.193813
4458.736384
4471.187455
4478.281441
4475.932829
4454.237526
4396.238978
4423.409509
4388.881585
4288.732849
4443.263698
4427.481331
4428.105150
4428.286856
4427.525938
4427.864207
4427.328966
4427.583266
4426.917481
4427.756813
4427.159897
4427.131886
4427.000169
4426.818156
4426.400908
4426.825394
4428.082548
4426.254797
4436.744089
4423.925225
4394.695288
4443.540241
4514.221089
4432.901180
4434.943674
4410.491872
4455.467136
4452.745454
4402.561175
4429.443782
4505.810690
4448.976124
4427.454341
4428.510497
4427.851492
4428.089140
4427.739826
4427.726647
4427.928276
4427.559602
4427.771820
4426.838642
4427.683635
4426.504231
4427.265000
4425.918427
4427.316324
4431.612092
4418.892771
4441.062944
4448.249774
4458.129054
4496.643651
4485.624913
4442.787524
4471.273694
4467.236145
4433.259618
4436.914876
4424.405843
4414.106459
4416.411321
4434.907923
4427.321113
4428.509968
4428.093905
4427.681423
4428.170199
4427.705994
4427.731873
4427.594221
4427.277809
4427.493126
4426.654744
4427.068113
4427.439353
4427.782027
4425.955735
4440.865145
4432.675449
4429.804973
4452.526580
4416.807574
4552.611084
4531.353322
4478.832594
4411.391223
4470.785678
4478.010287
4460.782331
4431.922876
4426.604778
4408.283632
4424.532478
4427.508235
4428.526197
4428.126867
4428.401164
4427.923777
4428.070513
4428.006696
4427.553895
4427.787247
4426.840196
4427.855466
4427.238914
4427.746121
4428.419046
4427.110742
4439.100840
4436.900944
4438.574722
4441.023653
4462.931402
4481.810725
4476.192721
4472.872198
4457.202159
4468.345683
4473.676694
4459.451122
4456.028176
4398.212454
4436.311944
4422.811283
4427.688518
4428.848089
4428.087647
4428.299354
4428.094810
4428.173513
4427.879374
4427.922102
4427.691545
4427.920998
4427.364600
4427.784135
4427.927214
4427.671860
4429.563823
4434.864877
4431.725335
4404.187480
4429.296581
4465.365613
4468.313461
4451.761097
4483.813276
4498.546494
4453.148457
4431.238433
4458.730450
4447.012963
4420.023483
4377.332504
4408.585515
4427.737321
4428.705638
4428.420897
4428.310747
4428.436078
4428.113735
4428.148450
4427.931472
4427.666173
4427.138576
4427.541165
4427.023774
4427.342371
4427.441270
4425.592813
4438.928147
4418.680451
4435.997408
4428.768574
4428.291206
4481.868725
4469.690625
4447.222414
4466.822804
4466.611575
4443.377501
4450.767502
4463.011943
4457.636161
4411.538624
4413.469172
4427.981647
4428.747621
4428.570399
4428.510113
4428.201609
4428.133114
4428.056223
4427.442129
4427.667530
4427.167726
4427.450729
4426.832388
4427.770590
4426.161778
4426.270228
4423.971639
4433.648677
4427.434942
4445.759517
4408.341586
4435.479610
4429.178547
4474.389590
4447.214928
4436.721959
4430.490023
4488.304301
4405.256518
4469.263189
4453.391837
4411.574470
4427.940009
4429.115749
4428.489720
4428.536037
4428.470257
4428.281648
4428.123078
4428.140572
4427.814577
4427.756512
4427.105826
4427.810747
4425.720030
4424.912916
4427.078705
4431.459563
4426.979706
4416.574064
4411.990888
4436.990979
4445.492090
4446.741625
4456.222701
4459.758455
4438.290617
4468.814521
4433.164650
4421.439299
4446.331693
4414.180702
4396.661665
4428.011899
4429.038327
4428.650436
4428.661807
4428.565497
4428.423348
4428.612130
4428.177468
4428.275577
4427.695990
4428.158133
4425.703097
4427.515970
4427.357548
4422.197593
4427.190682
4431.257671
4447.509168
4429.692705
4444.925830
4403.576642
4455.042790
4422.089463
4463.126575
4455.713131
4482.349841
4466.862303
4462.368377
4494.102051
4374.075832
4411.847690
4428.255627
4429.245791
4428.851797
4429.039795
4428.719038
4428.996992
4428.504234
4428.384908
4428.274364
4427.701499
4426.501322
4427.519816
4425.975219
4425.156955
4426.029334
4423.055455
4431.080711
4423.654017
4429.998251
4425.940326
4452.592256
4447.106054
4455.439597
4420.794973
4460.934033
4451.239552
4431.554153
4434.897320
4409.000714
4466.480572
4396.666231
4428.534235
4429.550699
4428.823138
4429.298971
4428.754974
4429.074925
4428.356675
4429.076455
4427.534135
4428.699335
4427.015587
4426.557670
4425.727858
4426.790149
4426.973545
4439.725441
4427.070054
4437.968115
4436.272568
4404.168158
4410.623106
4437.124769
4437.253325
4453.479442
4447.971168
4469.755469
4447.134937
4405.915641
4424.100485
4582.329456
4385.206070