# vtk DataFile Version 2.0
mfree iwf
ASCII

DATASET UNSTRUCTURED_GRID
POINTS 9672 float
0.000000 0.000445 0.000000
0.000000 0.000450 0.000000
0.000000 0.000455 0.000000
0.000000 0.000460 0.000000
0.000000 0.000465 0.000000
0.000000 0.000470 0.000000
0.000000 0.000475 0.000000
0.000000 0.000480 0.000000
0.000000 0.000485 0.000000
0.000000 0.000490 0.000000
-0.000000 0.000496 0.000000
0.000002 0.000500 0.000000
0.000398 0.000761 0.000000
0.000404 0.000768 0.000000
0.000439 0.000798 0.000000
0.000444 0.000802 0.000000
0.000444 0.000801 0.000000
0.000449 0.000805 0.000000
0.000455 0.000809 0.000000
0.000453 0.000808 0.000000
0.000464 0.000816 0.000000
0.000487 0.000830 0.000000
0.000493 0.000832 0.000000
0.000497 0.000833 0.000000
0.000502 0.000835 0.000000
0.000507 0.000836 0.000000
0.000511 0.000837 0.000000
0.000517 0.000838 0.000000
0.000520 0.000838 0.000000
0.000527 0.000840 0.000000
0.000534 0.000841 0.000000
0.000558 0.000848 0.000000
0.000005 0.000445 0.000000
0.000005 0.000450 0.000000
0.000005 0.000455 0.000000
0.000005 0.000460 0.000000
0.000005 0.000465 0.000000
0.000005 0.000470 0.000000
0.000005 0.000475 0.000000
0.000005 0.000480 0.000000
0.000005 0.000485 0.000000
0.000006 0.000489 0.000000
0.000004 0.000496 0.000000
0.000006 0.000499 0.000000
0.000435 0.000795 0.000000
0.000447 0.000796 0.000000
0.000471 0.000818 0.000000
0.000476 0.000822 0.000000
0.000480 0.000824 0.000000
0.000484 0.000826 0.000000
0.000487 0.000827 0.000000
0.000492 0.000827 0.000000
0.000497 0.000828 0.000000
0.000503 0.000830 0.000000
0.000510 0.000831 0.000000
0.000516 0.000833 0.000000
0.000522 0.000833 0.000000
0.000530 0.000836 0.000000
0.000534 0.000837 0.000000
0.000540 0.000838 0.000000
0.000548 0.000844 0.000000
0.000551 0.000845 0.000000
0.000546 0.000843 0.000000
0.000557 0.000847 0.000000
0.000010 0.000445 0.000000
0.000011 0.000450 0.000000
0.000010 0.000455 0.000000
0.000011 0.000460 0.000000
0.000010 0.000465 0.000000
0.000011 0.000470 0.000000
0.000010 0.000475 0.000000
0.000011 0.000480 0.000000
0.000009 0.000486 0.000000
0.000012 0.000490 0.000000
0.000009 0.000497 0.000000
0.000011 0.000498 0.000000
0.000440 0.000793 0.000000
0.000451 0.000796 0.000000
0.000461 0.000808 0.000000
0.000466 0.000813 0.000000
0.000470 0.000815 0.000000
0.000474 0.000818 0.000000
0.000475 0.000811 0.000000
0.000483 0.000817 0.000000
0.000486 0.000820 0.000000
0.000493 0.000823 0.000000
0.000499 0.000824 0.000000
0.000505 0.000827 0.000000
0.000509 0.000825 0.000000
0.000515 0.000825 0.000000
0.000519 0.000830 0.000000
0.000528 0.000833 0.000000
0.000543 0.000838 0.000000
0.000545 0.000840 0.000000
0.000554 0.000842 0.000000
0.000559 0.000840 0.000000
0.000015 0.000445 0.000000
0.000016 0.000450 0.000000
0.000015 0.000455 0.000000
0.000016 0.000460 0.000000
0.000014 0.000465 0.000000
0.000017 0.000470 0.000000
0.000014 0.000475 0.000000
0.000017 0.000480 0.000000
0.000014 0.000485 0.000000
0.000016 0.000488 0.000000
0.000014 0.000495 0.000000
0.000017 0.000498 0.000000
0.000025 0.000500 0.000000
0.000452 0.000799 0.000000
0.000463 0.000808 0.000000
0.000467 0.000805 0.000000
0.000478 0.000814 0.000000
0.000479 0.000821 0.000000
0.000488 0.000817 0.000000
0.000493 0.000819 0.000000
0.000499 0.000816 0.000000
0.000503 0.000823 0.000000
0.000516 0.000820 0.000000
0.000513 0.000829 0.000000
0.000523 0.000827 0.000000
0.000527 0.000829 0.000000
0.000532 0.000829 0.000000
0.000535 0.000832 0.000000
0.000541 0.000832 0.000000
0.000547 0.000834 0.000000
0.000551 0.000836 0.000000
0.000560 0.000836 0.000000
0.000020 0.000445 0.000000
0.000021 0.000450 0.000000
0.000019 0.000456 0.000000
0.000022 0.000460 0.000000
0.000018 0.000466 0.000000
0.000022 0.000468 0.000000
0.000019 0.000475 0.000000
0.000022 0.000478 0.000000
0.000020 0.000487 0.000000
0.000021 0.000491 0.000000
0.000021 0.000497 0.000000
0.000022 0.000499 0.000000
0.000039 0.000500 0.000000
0.000458 0.000795 0.000000
0.000461 0.000799 0.000000
0.000466 0.000801 0.000000
0.000469 0.000810 0.000000
0.000480 0.000809 0.000000
0.000488 0.000811 0.000000
0.000497 0.000819 0.000000
0.000492 0.000813 0.000000
0.000504 0.000818 0.000000
0.000511 0.000813 0.000000
0.000519 0.000815 0.000000
0.000521 0.000820 0.000000
0.000529 0.000824 0.000000
0.000534 0.000824 0.000000
0.000543 0.000827 0.000000
0.000545 0.000829 0.000000
0.000553 0.000831 0.000000
0.000555 0.000835 0.000000
0.000561 0.000833 0.000000
0.000025 0.000445 0.000000
0.000025 0.000450 0.000000
0.000026 0.000454 0.000000
0.000024 0.000460 0.000000
0.000025 0.000467 0.000000
0.000026 0.000472 0.000000
0.000024 0.000476 0.000000
0.000027 0.000481 0.000000
0.000023 0.000485 0.000000
0.000026 0.000488 0.000000
0.000026 0.000492 0.000000
0.000027 0.000500 0.000000
0.000418 0.000781 0.000000
0.000456 0.000800 0.000000
0.000459 0.000803 0.000000
0.000474 0.000806 0.000000
0.000478 0.000804 0.000000
0.000483 0.000812 0.000000
0.000492 0.000808 0.000000
0.000486 0.000807 0.000000
0.000497 0.000811 0.000000
0.000503 0.000814 0.000000
0.000509 0.000819 0.000000
0.000511 0.000818 0.000000
0.000520 0.000824 0.000000
0.000526 0.000820 0.000000
0.000538 0.000827 0.000000
0.000537 0.000820 0.000000
0.000550 0.000829 0.000000
0.000546 0.000823 0.000000
0.000557 0.000828 0.000000
0.000562 0.000828 0.000000
0.000030 0.000445 0.000000
0.000030 0.000450 0.000000
0.000029 0.000457 0.000000
0.000033 0.000460 0.000000
0.000030 0.000464 0.000000
0.000030 0.000468 0.000000
0.000032 0.000472 0.000000
0.000030 0.000477 0.000000
0.000031 0.000487 0.000000
0.000031 0.000492 0.000000
0.000033 0.000497 0.000000
0.000031 0.000499 0.000000
0.000049 0.000500 0.000000
0.000450 0.000790 0.000000
0.000469 0.000796 0.000000
0.000472 0.000802 0.000000
0.000474 0.000798 0.000000
0.000482 0.000803 0.000000
0.000496 0.000804 0.000000
0.000504 0.000810 0.000000
0.000498 0.000807 0.000000
0.000508 0.000809 0.000000
0.000515 0.000813 0.000000
0.000529 0.000815 0.000000
0.000524 0.000814 0.000000
0.000531 0.000819 0.000000
0.000535 0.000815 0.000000
0.000540 0.000821 0.000000
0.000551 0.000820 0.000000
0.000552 0.000824 0.000000
0.000558 0.000824 0.000000
0.000563 0.000824 0.000000
0.000035 0.000445 0.000000
0.000035 0.000450 0.000000
0.000038 0.000454 0.000000
0.000035 0.000457 0.000000
0.000035 0.000467 0.000000
0.000037 0.000472 0.000000
0.000032 0.000479 0.000000
0.000042 0.000479 0.000000
0.000035 0.000482 0.000000
0.000034 0.000488 0.000000
0.000038 0.000491 0.000000
0.000036 0.000498 0.000000
0.000392 0.000750 0.000000
0.000416 0.000779 0.000000
0.000463 0.000791 0.000000
0.000472 0.000794 0.000000
0.000484 0.000798 0.000000
0.000484 0.000794 0.000000
0.000489 0.000803 0.000000
0.000495 0.000799 0.000000
0.000505 0.000806 0.000000
0.000505 0.000801 0.000000
0.000515 0.000802 0.000000
0.000521 0.000810 0.000000
0.000525 0.000808 0.000000
0.000539 0.000811 0.000000
0.000543 0.000817 0.000000
0.000545 0.000810 0.000000
0.000548 0.000818 0.000000
0.000555 0.000817 0.000000
0.000559 0.000820 0.000000
0.000565 0.000818 0.000000
0.000040 0.000445 0.000000
0.000040 0.000450 0.000000
0.000037 0.000462 0.000000
0.000041 0.000457 0.000000
0.000042 0.000463 0.000000
0.000039 0.000468 0.000000
0.000042 0.000473 0.000000
0.000037 0.000477 0.000000
0.000041 0.000487 0.000000
0.000042 0.000492 0.000000
0.000042 0.000497 0.000000
0.000045 0.000498 0.000000
0.000358 0.000596 0.000000
0.000444 0.000792 0.000000
0.000457 0.000788 0.000000
0.000473 0.000786 0.000000
0.000479 0.000798 0.000000
0.000490 0.000799 0.000000
0.000489 0.000795 0.000000
0.000501 0.000801 0.000000
0.000511 0.000805 0.000000
0.000515 0.000808 0.000000
0.000511 0.000799 0.000000
0.000524 0.000803 0.000000
0.000530 0.000809 0.000000
0.000536 0.000807 0.000000
0.000532 0.000811 0.000000
0.000540 0.000813 0.000000
0.000548 0.000813 0.000000
0.000554 0.000812 0.000000
0.000560 0.000815 0.000000
0.000566 0.000814 0.000000
0.000045 0.000445 0.000000
0.000046 0.000450 0.000000
0.000046 0.000455 0.000000
0.000045 0.000461 0.000000
0.000044 0.000467 0.000000
0.000046 0.000474 0.000000
0.000046 0.000479 0.000000
0.000040 0.000484 0.000000
0.000052 0.000486 0.000000
0.000046 0.000483 0.000000
0.000048 0.000493 0.000000
0.000050 0.000498 0.000000
0.000358 0.000606 0.000000
0.000434 0.000792 0.000000
0.000464 0.000796 0.000000
0.000478 0.000792 0.000000
0.000480 0.000790 0.000000
0.000494 0.000794 0.000000
0.000498 0.000794 0.000000
0.000503 0.000797 0.000000
0.000509 0.000796 0.000000
0.000519 0.000800 0.000000
0.000519 0.000805 0.000000
0.000530 0.000804 0.000000
0.000523 0.000798 0.000000
0.000538 0.000802 0.000000
0.000544 0.000806 0.000000
0.000550 0.000808 0.000000
0.000553 0.000806 0.000000
0.000557 0.000810 0.000000
0.000562 0.000810 0.000000
0.000567 0.000809 0.000000
0.000050 0.000445 0.000000
0.000051 0.000450 0.000000
0.000048 0.000456 0.000000
0.000052 0.000459 0.000000
0.000049 0.000464 0.000000
0.000050 0.000472 0.000000
0.000051 0.000468 0.000000
0.000051 0.000477 0.000000
0.000047 0.000488 0.000000
0.000053 0.000491 0.000000
0.000058 0.000492 0.000000
0.000053 0.000498 0.000000
0.000368 0.000695 0.000000
0.000433 0.000785 0.000000
0.000446 0.000789 0.000000
0.000470 0.000789 0.000000
0.000484 0.000787 0.000000
0.000487 0.000790 0.000000
0.000492 0.000789 0.000000
0.000496 0.000788 0.000000
0.000510 0.000790 0.000000
0.000506 0.000793 0.000000
0.000517 0.000791 0.000000
0.000527 0.000795 0.000000
0.000529 0.000800 0.000000
0.000534 0.000800 0.000000
0.000540 0.000802 0.000000
0.000547 0.000798 0.000000
0.000547 0.000803 0.000000
0.000557 0.000803 0.000000
0.000562 0.000805 0.000000
0.000568 0.000804 0.000000
0.000054 0.000445 0.000000
0.000056 0.000450 0.000000
0.000055 0.000455 0.000000
0.000054 0.000462 0.000000
0.000057 0.000466 0.000000
0.000055 0.000473 0.000000
0.000057 0.000477 0.000000
0.000057 0.000480 0.000000
0.000052 0.000483 0.000000
0.000057 0.000486 0.000000
0.000056 0.000497 0.000000
0.000060 0.000497 0.000000
0.000377 0.000717 0.000000
0.000431 0.000792 0.000000
0.000438 0.000788 0.000000
[...]
POINT_DATA 9672
SCALARS density float 1
LOOKUP_TABLE default
4429.641946
4427.742841
4425.643684
4422.911879
4426.068844
4430.372906
4431.235015
4437.623791
4445.400212
4424.566159
4433.803237
4401.009887
4423.779229
4439.965868
4436.157911
4435.146708
4446.591563
4444.434599
4454.735046
4450.191689
4422.286133
4422.685581
4412.622117
4445.417536
4437.388541
4428.423900
4444.400049
4445.288938
4417.168925
4454.832137
4436.089265
4443.792197
4428.004577
4431.401480
4428.302245
4433.945429
4434.075363
4425.295491
4428.288221
4414.849530
4391.697135
4424.965590
4440.164430
4404.445129
4425.444860
4417.234199
4416.134668
4405.340383
4419.978511
4409.755895
4422.959120
4460.490277
4409.957579
4399.139195
4418.366713
4395.094481
4423.025844
4398.228703
4404.889395
4441.004912
4402.394600
4411.708475
4409.591528
4415.275345
4421.227526
4432.847422
4434.048138
4415.904655
4430.440817
4404.259224
4456.593098
4402.574424
4488.611165
4365.539990
4470.047917
4402.716547
4415.860562
4513.302939
4431.820455
4383.613355
4398.891472
4419.012136
4458.680122
4408.734427
4445.373960
4408.988647
4408.413823
4463.751827
4405.361240
4408.018437
4448.851375
4412.113777
4452.583694
4448.634577
4461.406519
4421.624757
4435.310362
4445.004086
4440.777807
4422.196255
4460.347851
4415.068634
4453.853097
4365.713395
4472.594733
4396.237829
4519.022908
4396.312437
4438.908396
4338.391803
4436.731534
4415.914403
4448.496281
4448.988524
4438.459013
4424.722057
4441.151122
4436.600827
4413.558119
4459.551307
4410.708484
4466.179614
4435.093442
4480.241419
4425.133175
4346.985005
4495.415535
4455.974079
4436.822592
4421.186178
4436.006228
4435.020433
4429.476427
4429.304518
4436.148322
4452.795518
4482.376513
4356.476775
4483.132856
4442.207817
4420.513647
4398.704865
4474.462545
4411.769763
4537.593641
4433.459440
4477.510363
4441.733265
4410.039708
4400.973688
4397.108770
4438.453882
4431.820161
4410.490362
4400.909825
4467.420248
4459.251028
4458.636168
4335.616753
4434.469396
4428.838497
4447.456611
4427.961845
4437.606604
4447.097313
4405.212127
4446.780026
4363.739044
4425.941175
4466.252120
4396.459051
4429.862619
4423.963636
4457.496227
4378.324884
4335.251271
4469.073886
4381.111035
4426.285733
4413.002270
4417.768192
4437.512009
4455.398655
4441.643335
4436.663976
4453.414403
4386.426783
4463.768305
4450.903903
4370.073857
4432.509076
4416.665422
4432.170713
4421.432374
4409.290164
4452.778826
4408.232573
4456.559461
4414.911605
4456.670638
4440.552807
4428.970950
4455.793057
4424.536791
4417.188192
4428.324049
4427.604873
4462.781349
4407.226544
4430.008074
4440.631706
4450.128056
4446.536209
4447.949018
4423.037536
4413.278313
4400.210257
4437.535101
4389.869393
4435.402218
4484.054587
4377.796588
4436.097559
4444.424585
4435.135939
4420.231443
4430.004386
4450.092846
4419.359143
4431.968492
4456.755655
4420.983467
4406.635735
4430.580560
4405.483400
4445.070510
4421.402536
4418.909953
4436.137767
4436.584218
4432.229825
4446.898255
4427.896122
4421.049056
4418.893840
4433.082900
4414.437158
4461.796351
4413.977872
4441.360741
4401.773387
4439.139031
4491.634773
4386.335365
4424.120839
4412.521404
4423.685680
4419.342340
4423.843945
4393.621265
4453.872818
4445.048679
4435.791717
4415.166383
4454.254995
4432.215596
4442.628572
4424.551990
4558.424017
4392.931943
4374.850845
4446.962657
4402.920516
4446.964963
4440.806701
4437.283366
4436.789092
4421.190884
4444.947705
4401.028213
4454.239252
4382.731496
4446.939483
4442.083504
4409.762958
4409.144495
4454.006036
4425.791512
4429.833082
4429.014389
4439.662662
4435.185225
4396.446976
4430.936750
4448.340966
4434.928636
4454.499151
4404.085663
4466.243553
4439.763566
4488.419459
4422.251831
4420.207722
4448.060289
4453.288515
4437.073080
4431.077917
4447.040353
4436.899197
4450.352298
4433.769183
4438.169527
4432.080449
4451.967787
4413.585518
4450.473502
4437.834902
4450.338329
4417.224501
4420.528767
4433.827360
4409.977616
4423.523129
4420.139079
4414.932438
4446.086506
4449.192707
4368.709856
4381.295238
4409.260270
4518.393114
4415.891661
4431.080444
4464.439943
4434.428518
4440.317700
4443.758040
4410.571448
4449.055756
4406.650502
4449.200966
4405.828449
4438.318230
4406.154147
4438.743752
4436.342573
4444.598615
4452.408884
4414.444039
4408.288851
4431.351079
4435.817508
4423.845477
4422.703802
4443.687896
4450.850088
4411.143330
4422.632482
4444.265479
4437.090036
4477.125603
4344.954497
4425.454888
4398.574569
4434.159800
4409.114883
4493.071710
4426.621979
4445.274176
4435.624071
4412.725820
4467.088563
4393.208208
4437.967410
4432.423734
4413.823736
4419.114354
4413.415238
4435.498980
4436.484954
4444.477386
4445.739730
4430.269156
4419.373809
4428.854058
4421.356596
4449.423126
4426.042754
4418.307240
4440.867793
4428.498243
4413.056395
4487.808206
4420.469497
4440.507122
4432.502819
4414.226381
4432.148182
4417.035162
4378.331525
4370.443687
4455.322081
4422.568610
4439.019409
4421.612253
4415.332819
4444.354078
4430.872680
4417.478649
4428.540885
4453.621036
4454.244092
4413.020157
4419.079026
4418.077503
4434.565052
4441.978268
4421.617121
4406.811290
4463.191169
4449.838765
4427.281327
4412.080349
4435.823575
4456.652515
4357.642257
4471.916901
4425.002973
4426.740601
4413.750770
4442.809777
4424.306622
4467.720514
4395.531081
4403.158319
4415.066554
4400.710774
4429.860784
4462.824477
4453.619899
4405.904865
4425.089489
4416.522102
4430.185784
4427.986745
4452.142369
4429.444528
4422.169193
4426.510171
4435.775947
4414.457926
4402.818355
4414.286867
4462.230166
4403.545376
4434.726836
4372.666653
4441.864506
4431.349397
4454.711792
4441.217356
4416.301433
4428.012365
4485.561247
4454.481676
4434.523874
4465.805350
4469.879860
4380.106108
4438.906976
4418.912528
4425.040176
4412.118190
4458.112020
4440.489617
4442.487642
4419.532363
4406.109356
4429.639499
4432.208577
4440.255531
4416.839299
4422.254569
4446.642879
4442.856548
4433.657050
4450.504865
4466.488605
4478.940808
4329.999833
4420.788605
4453.851799
4427.501023
4418.664426
4424.754194
4353.967454
4431.575003
4463.955489
4419.173816
4458.198352
4439.823083
4420.590793
4445.898209
4454.837078
4441.403997
4444.834125
4390.657837
4441.429734
4430.103251
4449.158986
4421.672437
4426.073812
4418.921983
4427.144257
4443.052085
4411.772551
4419.568276
4395.845009
4451.828108
4410.039332
4446.143350
4504.252960
4422.971249
4421.249244
4419.154532
4432.096839
4453.585440
4432.316726
4466.525009
4404.420176
4423.466723
4412.360611
4428.806380
4457.605258
4448.160153
4435.081596
4434.328109
4421.671230
4441.711674
4434.551105
4408.543941
4447.620033
4411.666490
4438.061304
4438.366034
4421.936613
4424.341384
4450.575692
4466.552334
4419.957176
4430.010262
4449.673623
4383.598027
4358.000809
4437.693360
4458.739149
4465.649357
4444.955264
4448.396024
4434.873366
4373.874927
4404.915017
4470.641344
4469.484283
4462.273118
4484.623816
4407.448067
4418.828299
4418.064403
4450.281124
4398.093021
4405.792862
4436.875615
4442.470969
4427.606070
4429.356750
4421.245047
4423.769904
4442.758947
4423.535335
4411.909142
4451.048963
4448.675249
4480.226552
4439.071901
4437.896863
4399.558222
4429.321042
4416.406820
4414.932724
4431.458133
4419.550263
4435.621772
4415.005460
4428.819876
4398.400785
4396.838328
4453.894555
4406.141135
4431.833671
4443.806991
4438.558720
4452.300176
4445.422646
4426.503635
4416.582121
4424.638162
4423.946066
4444.640734
4432.744722
4409.754133
4421.419750
4417.571346
4414.394258
4424.443785
4386.527590
4480.723272
4427.997822
4427.766051
4434.917814
4414.434631
4429.395733
4448.267905
4430.295079
4416.928657
4436.035880
4449.598551
4396.838931
4509.138531
4407.967849
4434.023565
4416.080723
4437.344010
4422.684592
4441.859524
4402.415506
4425.353578
4441.964005
4431.815261
4430.333256
4419.793459
4422.561084
4440.574609
4432.538275
4444.763175
4449.613299
4387.271847
4409.392852
4442.617038
4480.492879
4384.684082
4541.357178
4431.195768
4434.592507
4426.339583
4458.947788
4439.295322
4447.313075
4463.538521
4437.680578
4412.519786
4461.340410
4484.365148
4397.103481
4457.914455
4431.059173
4436.632667
4450.670944
4454.447458
4411.634062
4427.430196
4423.161932
4443.869270
4435.612497
4414.052625
4415.818714
4432.800126
4415.121977
4376.571287
4431.567113
4483.043875
4380.684747
4431.117212
4434.408278
4430.134139
4429.686810
4421.903812
4409.229584
4447.249783
4444.111777
4455.746679
4441.005841
4402.072508
4335.974319
4453.721913
4451.570662
4470.363469
4418.166638
4419.143922
4419.204975
4432.966267
4410.916072
4441.506556
4434.100731
4431.263724
4424.562501
4439.067615
4427.078572
4423.375074
4435.070094
4450.870280
4424.914319
4438.975458
4398.605280
4380.803249
4477.585081
4429.181129
4453.830514
4408.563352
4461.030155
4445.373599
4431.650468
4435.424834
4402.839610
4434.418162
4366.351383
4335.595115
4453.264991
4424.053813
4408.883895
4451.733515
4429.786344
4470.642007
4427.673382
4417.373247
4425.890286
4432.424252
4432.121745
4413.763091
4422.191279
4412.309319
4401.192322
4447.960330
4441.720111
4449.958294
4450.919197
4404.744610
4426.754855
4412.043549
4428.532549
4395.378704
4359.225091
4457.444498
4459.397149
4426.406213
4444.497599
4442.701365
4438.359999
4435.336510
4441.079969
4460.374179
4456.626719
4443.181517
4438.796047
4411.130667
4413.702066
4442.269983
4423.677881
4420.059992
4428.873687
4428.530155
4428.918444
4429.329751
4429.442937
4429.807715
4429.923025
4430.346433
4430.579884
4431.015703
4431.034478
4431.076760
4430.524202
4429.774373
4422.917911
4427.892466
4428.036084
4428.739059
4429.303753
4429.571263
4430.000343
4429.998095
4430.217442
4429.807587
4429.853452
4429.840341
4430.040885
4430.562938
4431.233675
4425.066696
4427.737041
4427.717867
4428.011918
4428.711852
4428.525412
4429.204362
4429.164398
4429.847062
4430.217229
4430.936203
4430.683500
4430.462057
4430.378048
4428.772353
4426.021781
4427.897670
4428.118811
4428.422585
4429.011408
4429.213765
4429.570361
4429.533245
4429.640873
4429.074787
4428.852690
4428.530302
4429.024996
4428.513608
4429.693314
4427.082306
4427.998730
4428.130483
4427.990311
4428.481984
4428.190833
4428.851472
4428.613560
4429.441585
4429.499045
4430.551237
4429.820315
4430.322043
4427.761126
4428.895214
4427.327241
4428.114973
4428.594938
4428.096036
4429.271342
4428.650992
4429.632617
4428.859062
4429.552830
4428.329747
4428.636445
4427.844934
4428.403046
4427.857703
4428.888049
4427.465341
4428.263977
4428.314907
4428.081162
4428.342835
4428.070726
4428.544388
4428.371378
4429.033011
4429.268215
4430.085562
4429.800091
4429.576047
4428.179950
4428.794644
4427.633544
4428.609801
4428.283943
4428.540023
4428.763738
4428.929279
4429.021796
4429.015569
4428.909289
4428.414614
4428.183460
4427.702066
4428.759095
4427.952145
4428.064832
4427.485217
4428.503320
4428.205592
4428.162747
4428.137043
4428.049642
4428.210169
4428.266286
4428.681829
4429.176165
4429.869148
4430.125801
4429.764861
4429.199559
4429.652525
4427.785825
4428.627730
4428.315446
4428.538284
4428.604363
4428.836025
4428.759749
4428.859673
4428.541249
4428.374457
4427.858817
4428.055850
4429.014793
4429.333250
4430.496583
4427.431561
4428.527197
4428.150431
4428.032366
4428.069707
4427.823958
4428.003826
4427.894080
4428.491805
4428.773644
4429.803009
4429.804579
4430.355558
4429.790864
4430.096978
4427.531605
4428.609017
4428.240105
4428.328718
4428.589676
4428.415962
4428.694097
4428.347639
4428.491019
4427.767750
4427.710781
4427.502212
4428.357553
4429.369326
4430.170624
4427.525441
4428.481577
4428.049651
4428.109250
4427.681150
4427.878887
4427.514872
4427.905558
4427.796610
4428.723910
4428.772590
4429.417247
4429.135051
4428.946185
4429.979733
4425.551167
4425.072870
4414.803241
4440.340520
4422.031302
4454.272259
4432.330668
4427.739947
4403.351175
4467.568491
4451.868605
4416.153247
4407.466309
4441.201879
4431.072747
4417.439582
4427.488058
4428.565634
4428.131826
4428.162704
4428.383511
4428.276558
4428.299644
4428.202297
4427.916899
4427.199536
4427.010958
4426.508909
4426.766533
4427.381394
4428.116017
4430.457203
4435.700140
4418.269705
4421.039132
4418.934138
4444.135052
4433.982003
4355.354595
4426.374832
4393.783462
4424.760538
4458.451808
4409.865556
4463.976352
4393.000321
4402.398149
4427.086528
4428.265351
4428.054103
4427.716501
4427.843694
4427.107697
4427.779482
4426.800234
4427.811881
4427.589956
4428.472001
4427.930430
4428.246999
4426.340883
4428.501906
4431.923411
4450.358575
4422.718222
4438.880198
4407.123228
4445.961207
4420.388820
4382.382986
4434.896673
4445.587964
4440.771147
4419.090143
4414.540964
4424.777955
4394.054697
4445.454259
4427.288530
4428.222298
4428.311172
4427.617271
4428.409982
4427.755210
4428.123792
4427.644663
4427.690712
4426.270699
4426.768302
4425.020001
4426.361072
4423.738600
4426.668643
4416.879009
4411.935886
4393.617255
4385.056357
4406.899423
4444.470758
4436.334351
4460.857117
4421.016420
4414.125593
4435.911751
4447.144197
4381.307523
4389.400778
4420.619089
4438.732707
4426.843842
4428.260388
4427.831105
4427.537922
4427.629534
4426.858540
4427.451441
4426.604327
4427.267002
4427.424414
4427.579754
4427.049430
4426.870872
4424.038811
4423.365320
4434.537916
4434.223497
4426.169758
4468.449139
4454.199520
4433.235426
4438.948539
4437.308989
4403.964375
4457.042202
4441.109397
4460.994998
4401.579868
4406.440357
4434.535726
4413.787369
4426.894109
4428.394621
4427.711018
4427.987621
4427.650686
4427.916635
4427.690386
4427.560138
4427.381040
4425.866578
4426.055874
4424.988571
4424.683022
4424.561426
4422.817635
4425.196895
4412.503969
4434.511984
4438.907964
4485.424379
4386.076862
4432.753573
4429.204240
4452.556200
4400.029976
4391.857967
4443.713503
4416.560991
4446.020413
4450.063003
4424.355277
4426.961164
4428.094315
4427.955691
4427.196577
4427.609855
4426.994352
4427.037655
4426.990602
4426.535127
4427.757909
4426.737278
4427.142254
4426.153978
4424.941311
4425.326441
4447.177461
4438.196641
4450.789978
4390.603501
4343.026755
4435.614659
4428.132804
4430.783964
4441.593930
4440.227152
4414.892781
4462.277372
4460.415295
4412.726753
4481.487079
4391.726371
4426.792776
4428.299003
4427.671131
4427.904530
4427.773507
4427.588322
4427.937038
4427.164052
4427.445859
4425.545520
4426.190290
4424.947056
4425.323311
4425.318615
4425.465297
4435.787927
4415.777349
4444.889557
4400.028964
4404.604087
4473.580086
4425.136037
4416.668842
4430.778742
4399.711336
4460.099308
4375.094672
4439.680638
4457.629618
4442.773463
4438.980747
4426.784429
4428.138778
4427.784845
4427.345706
4427.516669
4427.068184
4427.245812
4426.472609
4427.080446
4426.987752
4427.475328
4426.928170
4427.316994
4426.274819
4426.450170
4426.719363
4445.410207
4401.897969
4431.495360
4444.066998
4430.216333
4420.822247
4419.209466
4389.519254
4459.109107
4401.675926
4372.252809
4435.395588
4466.526102
4420.087531
4401.633078
4426.807099
4428.094914
4428.016727
4427.417049
4428.205721
4427.267916
4427.697607
4427.409040
4426.687158
4425.897154
4425.980269
4424.872497
4426.243631
4424.976388
4428.055110
4427.251576
4440.479940
4432.635126
4440.386635
4375.312496
4413.513394
4439.589751
4428.013425
4416.643570
4441.313645
4391.569897
4427.325219
4330.644510
4432.544586
4486.466808
4433.038963
4426.889566
4428.228737
4427.643613
4427.746247
4427.186365
4427.037541
4427.191071
4425.884513
4426.945111
4426.769654
4427.041778
4427.310589
4426.213582
4425.029306
4424.809946
4433.295033
4442.665744
4440.839509
4429.543770
4428.762108
4428.637785
4456.897390
4493.335557
4387.344135
4426.059991
4438.292784
4447.141538
4448.631273
4465.437528
4410.919133
4387.683219
4427.079308
4428.135605
4428.020980
4427.350928
4427.920342
4427.140182
4427.277679
4427.204346
4426.827739
4425.593760
4426.521625
4424.292488
4425.724650
4424.788458
4422.831937
4449.748202
4439.704054
4449.275264
4447.034346
4414.869697
4421.606711
4435.955342
4393.034537
4487.942559
4408.112939
4432.895459
4379.701975
4424.469188
4389.941123
4389.590726
4460.771634
4427.122013
4428.055521
4428.118172
4427.042573
4427.745994
4426.387295
4427.481630
4426.176700
4426.929885
4427.463530
4426.785899
4427.300657
4425.704831
4425.187566
4427.303485
4427.519511
4408.516336
4435.783464
4407.703934
4390.606830
4456.044282
4421.899022
4436.573588
4395.818623
4402.833700
4419.367003
4427.363395
4441.336924
4402.394461
4476.065838
4472.144216
4427.352672
4428.464578
4427.597717
4428.187829
4427.267678
4427.937660
4427.532275
4427.387070
4427.583904
4425.251534
4426.230637
4424.266062
4425.864478
4423.895731
4426.579614
4444.842515
4422.511381
4430.221994
4438.128617
4433.829545
4421.352700
4457.345555
4427.418155
4399.953663
4445.274122
4447.331744
4448.608097
4414.187631
4421.562612
4429.490368
4452.510003
4427.166407
4428.230019
4428.210793
4427.158049
4428.086440
4427.094095
4427.353255
4426.942758
4426.339753
4427.019011
4426.852244
4426.288946
4426.203370
4425.428924
4424.433309
4419.627948
4433.799378
4426.336122
4435.053092
4444.321803
4434.864650
4483.960548
4451.547109
4429.542820
4448.276549
4391.540211
4398.567858
4428.913926
4425.835081
4409.558719
4415.750778
4427.638220
4428.240377
4428.303581
4427.778515
4428.410483
4427.341382
4428.386995
4426.763044
4427.881721
4425.731591
4426.001894
4425.530952
4425.094284
4425.274120
4425.775832
4408.774236
4415.716931
4445.701521
4406.461078
4369.317479
4432.591000
4782.089535
4481.373654
4444.880497
4441.204141
4447.208813
4427.464583
4444.538211
4410.067556
4458.042639
4420.984742
4427.699997
4428.553014
4428.086417
4428.311189
4427.558002
4428.113903
4427.443631
4427.644735
4427.200271
4427.400415
4427.838353
4426.866826
4427.098432
4425.256702
4425.657609
4422.270329
4427.695719
4402.552009
4478.668589
4390.503222
4427.015083
4527.526779
4448.292598
4470.721099
4465.285423
4479.175173
4424.578562
4431.465914
4441.474919
4390.398061
4422.759221
4427.817702
4428.428818
4428.511971
4427.505173
4428.710083
4427.318123
4428.157461
4427.228532
4427.117582
4425.735753
4426.069891
4424.005948
4426.554734
4424.686396
4425.345724
4447.676018
4440.608741
4441.266375
4420.955303
4372.975136
4402.585240
4486.254606
4467.180369
4471.709587
4412.667413
4391.602308
4426.663171
4469.190666
4452.613560
4450.914939
4428.609928
4428.100814
4428.126635
4428.820047
4427.447069
4428.197162
4426.361855
4427.970786
4425.319658
4426.780141
4426.194274
4426.948083
4427.768830
4426.011348
4424.037190
4427.803357
4434.811396
4397.851925
4449.081733
4452.546096
4376.459378
4433.207035
4471.711712
4458.185235
4433.968712
4426.500972
4436.594485
4410.987322
4412.363368
4416.670538
4453.497357
4426.320725
4428.262684
4428.655078
4428.334099
4427.931303
4427.676714
4427.789065
4427.629884
4427.805236
4427.928739
4427.195720
4427.659394
4424.745376
4426.647048
4423.680319
4424.432097
4437.252924
4433.453324
4425.963903
4384.087397
4416.232296
4447.790102
4681.665822
4452.639056
4467.780617
4484.454107
4440.416688
4392.591552
4411.760432
4428.568243
4353.795188
4424.617846
4428.365062
4428.389336
4428.777192
4427.401374
4428.915072
4427.430470
4428.879044
4427.671553
4428.660165
4428.150084
4428.470777
4426.609233
4425.469713
4425.704747
4422.022793
4436.223398
4443.584001
4449.607107
4398.580254
4459.315336
4454.132462
4470.110259
4459.074643
4423.210071
4454.968363
4454.931544
4399.131185
4451.534740
4422.949699
4511.906696
4424.461961
4428.390321
4428.498875
4429.012065
4428.240369
4428.907766
4427.963804
4428.924630
4427.388867
4428.865503
4425.752424
4425.626969
4424.353189
4425.472124
4423.286255
4426.742200
4426.205708
4425.303742
4459.287322
4411.566870
4428.530088
4520.246564
4503.922125
4508.204942
4457.458313
4439.403683
4468.096135
4455.511753
4440.439350
4419.840488
4376.705075
4439.417572
4428.881273
4429.179801
4428.526044
4428.927470
4428.113900
4428.650999
4427.363926
4428.021957
4426.777107
4426.855731
4426.163067
4424.054625
4425.908610
4424.098248
4426.354917
4428.621412
4414.142912
4444.986922
4454.502281
4481.720229
4366.406950
4564.895128
4479.693674
4448.469575
4453.226047
4432.923690
4458.338308
4421.869391
4400.657042
4390.751129
4405.438159