# vtk DataFile Version 2.0
mfree iwf
ASCII

DATASET UNSTRUCTURED_GRID
POINTS 9387 float
0.000000 0.000445 0.000000
0.000000 0.000450 0.000000
0.000000 0.000455 0.000000
0.000000 0.000460 0.000000
0.000000 0.000465 0.000000
0.000000 0.000470 0.000000
0.000000 0.000475 0.000000
0.000000 0.000480 0.000000
0.000000 0.000485 0.000000
0.000001 0.000490 0.000000
0.000000 0.000496 0.000000
0.000002 0.000500 0.000000
0.000316 0.000707 0.000000
0.000320 0.000715 0.000000
0.000349 0.000752 0.000000
0.000353 0.000756 0.000000
0.000353 0.000756 0.000000
0.000357 0.000760 0.000000
0.000363 0.000765 0.000000
0.000361 0.000764 0.000000
0.000370 0.000773 0.000000
0.000389 0.000793 0.000000
0.000395 0.000796 0.000000
0.000399 0.000797 0.000000
0.000403 0.000799 0.000000
0.000408 0.000801 0.000000
0.000412 0.000803 0.000000
0.000418 0.000806 0.000000
0.000421 0.000807 0.000000
0.000427 0.000809 0.000000
0.000433 0.000812 0.000000
0.000456 0.000824 0.000000
0.000005 0.000445 0.000000
0.000005 0.000450 0.000000
0.000005 0.000455 0.000000
0.000005 0.000460 0.000000
0.000005 0.000465 0.000000
0.000005 0.000470 0.000000
0.000005 0.000475 0.000000
0.000005 0.000480 0.000000
0.000005 0.000485 0.000000
0.000006 0.000489 0.000000
0.000004 0.000496 0.000000
0.000006 0.000499 0.000000
0.000346 0.000748 0.000000
0.000358 0.000751 0.000000
0.000376 0.000777 0.000000
0.000381 0.000782 0.000000
0.000384 0.000785 0.000000
0.000387 0.000787 0.000000
0.000390 0.000789 0.000000
0.000395 0.000790 0.000000
0.000400 0.000793 0.000000
0.000405 0.000795 0.000000
0.000412 0.000798 0.000000
0.000417 0.000801 0.000000
0.000424 0.000802 0.000000
0.000431 0.000807 0.000000
0.000435 0.000808 0.000000
0.000440 0.000810 0.000000
0.000446 0.000817 0.000000
0.000450 0.000819 0.000000
0.000445 0.000817 0.000000
0.000455 0.000822 0.000000
0.000010 0.000445 0.000000
0.000011 0.000450 0.000000
0.000010 0.000455 0.000000
0.000011 0.000460 0.000000
0.000010 0.000465 0.000000
0.000011 0.000469 0.000000
0.000010 0.000475 0.000000
0.000011 0.000480 0.000000
0.000009 0.000486 0.000000
0.000012 0.000490 0.000000
0.000009 0.000497 0.000000
0.000011 0.000498 0.000000
0.000350 0.000746 0.000000
0.000361 0.000752 0.000000
0.000369 0.000765 0.000000
0.000372 0.000771 0.000000
0.000375 0.000774 0.000000
0.000379 0.000778 0.000000
0.000382 0.000772 0.000000
0.000389 0.000779 0.000000
0.000391 0.000783 0.000000
0.000397 0.000787 0.000000
0.000402 0.000788 0.000000
0.000408 0.000794 0.000000
0.000413 0.000791 0.000000
0.000418 0.000793 0.000000
0.000422 0.000799 0.000000
0.000429 0.000804 0.000000
0.000443 0.000811 0.000000
0.000445 0.000813 0.000000
0.000453 0.000817 0.000000
0.000458 0.000817 0.000000
0.000015 0.000445 0.000000
0.000016 0.000450 0.000000
0.000015 0.000456 0.000000
0.000016 0.000459 0.000000
0.000015 0.000465 0.000000
0.000016 0.000471 0.000000
0.000014 0.000475 0.000000
0.000017 0.000480 0.000000
0.000014 0.000485 0.000000
0.000017 0.000489 0.000000
0.000014 0.000495 0.000000
0.000017 0.000498 0.000000
0.000025 0.000500 0.000000
0.000362 0.000756 0.000000
0.000371 0.000766 0.000000
0.000375 0.000764 0.000000
0.000384 0.000775 0.000000
0.000383 0.000781 0.000000
0.000393 0.000779 0.000000
0.000397 0.000782 0.000000
0.000403 0.000781 0.000000
0.000407 0.000789 0.000000
0.000420 0.000788 0.000000
0.000415 0.000796 0.000000
0.000425 0.000796 0.000000
0.000429 0.000799 0.000000
0.000434 0.000801 0.000000
0.000436 0.000803 0.000000
0.000442 0.000805 0.000000
0.000449 0.000808 0.000000
0.000452 0.000811 0.000000
0.000460 0.000813 0.000000
0.000020 0.000445 0.000000
0.000021 0.000450 0.000000
0.000020 0.000456 0.000000
0.000021 0.000460 0.000000
0.000019 0.000466 0.000000
0.000021 0.000467 0.000000
0.000020 0.000475 0.000000
0.000022 0.000479 0.000000
0.000019 0.000486 0.000000
0.000021 0.000491 0.000000
0.000021 0.000497 0.000000
0.000022 0.000499 0.000000
0.000039 0.000500 0.000000
0.000368 0.000752 0.000000
0.000370 0.000757 0.000000
0.000375 0.000760 0.000000
0.000377 0.000769 0.000000
0.000386 0.000769 0.000000
0.000393 0.000774 0.000000
0.000402 0.000784 0.000000
0.000399 0.000777 0.000000
0.000411 0.000784 0.000000
0.000415 0.000780 0.000000
0.000423 0.000785 0.000000
0.000426 0.000788 0.000000
0.000431 0.000795 0.000000
0.000436 0.000795 0.000000
0.000446 0.000799 0.000000
0.000445 0.000804 0.000000
0.000455 0.000806 0.000000
0.000456 0.000810 0.000000
0.000462 0.000810 0.000000
0.000025 0.000445 0.000000
0.000025 0.000450 0.000000
0.000026 0.000454 0.000000
0.000025 0.000459 0.000000
0.000026 0.000467 0.000000
0.000026 0.000472 0.000000
0.000024 0.000476 0.000000
0.000027 0.000481 0.000000
0.000024 0.000485 0.000000
0.000026 0.000488 0.000000
0.000027 0.000492 0.000000
0.000027 0.000500 0.000000
0.000331 0.000731 0.000000
0.000366 0.000756 0.000000
0.000367 0.000761 0.000000
0.000381 0.000766 0.000000
0.000387 0.000764 0.000000
0.000390 0.000773 0.000000
0.000398 0.000771 0.000000
0.000394 0.000769 0.000000
0.000404 0.000776 0.000000
0.000409 0.000780 0.000000
0.000411 0.000787 0.000000
0.000417 0.000785 0.000000
0.000423 0.000792 0.000000
0.000431 0.000791 0.000000
0.000441 0.000799 0.000000
0.000440 0.000793 0.000000
0.000451 0.000803 0.000000
0.000450 0.000797 0.000000
0.000458 0.000804 0.000000
0.000464 0.000805 0.000000
0.000030 0.000445 0.000000
0.000031 0.000450 0.000000
0.000029 0.000458 0.000000
0.000033 0.000461 0.000000
0.000029 0.000463 0.000000
0.000031 0.000469 0.000000
0.000031 0.000472 0.000000
0.000030 0.000477 0.000000
0.000031 0.000486 0.000000
0.000031 0.000492 0.000000
0.000033 0.000497 0.000000
0.000031 0.000499 0.000000
0.000049 0.000500 0.000000
0.000361 0.000746 0.000000
0.000378 0.000755 0.000000
0.000380 0.000761 0.000000
0.000384 0.000760 0.000000
0.000390 0.000766 0.000000
0.000402 0.000770 0.000000
0.000409 0.000775 0.000000
0.000407 0.000770 0.000000
0.000416 0.000775 0.000000
0.000422 0.000780 0.000000
0.000431 0.000787 0.000000
0.000431 0.000783 0.000000
0.000436 0.000788 0.000000
0.000440 0.000788 0.000000
0.000443 0.000794 0.000000
0.000455 0.000794 0.000000
0.000455 0.000799 0.000000
0.000460 0.000800 0.000000
0.000466 0.000801 0.000000
0.000035 0.000445 0.000000
0.000035 0.000450 0.000000
0.000038 0.000454 0.000000
0.000034 0.000456 0.000000
0.000035 0.000466 0.000000
0.000037 0.000472 0.000000
0.000033 0.000479 0.000000
0.000042 0.000479 0.000000
0.000035 0.000483 0.000000
0.000035 0.000489 0.000000
0.000038 0.000491 0.000000
0.000036 0.000498 0.000000
0.000312 0.000695 0.000000
0.000330 0.000728 0.000000
0.000373 0.000749 0.000000
0.000383 0.000754 0.000000
0.000392 0.000761 0.000000
0.000395 0.000757 0.000000
0.000399 0.000765 0.000000
0.000403 0.000765 0.000000
0.000412 0.000774 0.000000
0.000413 0.000768 0.000000
0.000422 0.000773 0.000000
0.000426 0.000780 0.000000
0.000430 0.000778 0.000000
0.000442 0.000784 0.000000
0.000447 0.000790 0.000000
0.000450 0.000786 0.000000
0.000451 0.000793 0.000000
0.000458 0.000793 0.000000
0.000462 0.000796 0.000000
0.000468 0.000796 0.000000
0.000040 0.000445 0.000000
0.000040 0.000450 0.000000
0.000038 0.000461 0.000000
0.000042 0.000457 0.000000
0.000041 0.000464 0.000000
0.000040 0.000468 0.000000
0.000042 0.000474 0.000000
0.000037 0.000477 0.000000
0.000042 0.000487 0.000000
0.000043 0.000492 0.000000
0.000042 0.000497 0.000000
0.000045 0.000498 0.000000
0.000298 0.000563 0.000000
0.000355 0.000747 0.000000
0.000368 0.000746 0.000000
0.000384 0.000746 0.000000
0.000389 0.000758 0.000000
0.000396 0.000762 0.000000
0.000403 0.000760 0.000000
0.000409 0.000766 0.000000
0.000417 0.000769 0.000000
0.000421 0.000777 0.000000
0.000422 0.000768 0.000000
0.000432 0.000774 0.000000
0.000436 0.000780 0.000000
0.000442 0.000779 0.000000
0.000438 0.000783 0.000000
0.000447 0.000785 0.000000
0.000454 0.000788 0.000000
0.000459 0.000788 0.000000
0.000465 0.000791 0.000000
0.000470 0.000792 0.000000
0.000045 0.000445 0.000000
0.000046 0.000450 0.000000
0.000045 0.000455 0.000000
0.000046 0.000461 0.000000
0.000045 0.000467 0.000000
0.000046 0.000472 0.000000
0.000046 0.000478 0.000000
0.000040 0.000483 0.000000
0.000052 0.000485 0.000000
0.000046 0.000483 0.000000
0.000048 0.000493 0.000000
0.000051 0.000498 0.000000
0.000298 0.000571 0.000000
0.000345 0.000745 0.000000
0.000374 0.000755 0.000000
0.000388 0.000753 0.000000
0.000390 0.000752 0.000000
0.000400 0.000757 0.000000
0.000408 0.000760 0.000000
0.000411 0.000762 0.000000
0.000418 0.000764 0.000000
0.000426 0.000768 0.000000
0.000427 0.000773 0.000000
0.000437 0.000775 0.000000
0.000431 0.000769 0.000000
0.000445 0.000776 0.000000
0.000449 0.000780 0.000000
0.000454 0.000782 0.000000
0.000459 0.000782 0.000000
0.000462 0.000785 0.000000
0.000467 0.000787 0.000000
0.000472 0.000788 0.000000
0.000050 0.000445 0.000000
0.000051 0.000450 0.000000
0.000049 0.000455 0.000000
0.000052 0.000460 0.000000
0.000049 0.000464 0.000000
0.000051 0.000473 0.000000
0.000050 0.000468 0.000000
0.000050 0.000478 0.000000
0.000047 0.000488 0.000000
0.000053 0.000491 0.000000
0.000058 0.000492 0.000000
0.000053 0.000498 0.000000
0.000299 0.000636 0.000000
0.000346 0.000738 0.000000
0.000358 0.000743 0.000000
0.000382 0.000749 0.000000
0.000394 0.000750 0.000000
0.000398 0.000752 0.000000
0.000405 0.000752 0.000000
0.000406 0.000756 0.000000
0.000420 0.000758 0.000000
0.000416 0.000760 0.000000
0.000428 0.000763 0.000000
0.000435 0.000767 0.000000
0.000437 0.000770 0.000000
0.000441 0.000772 0.000000
0.000448 0.000774 0.000000
0.000453 0.000774 0.000000
0.000457 0.000778 0.000000
0.000463 0.000780 0.000000
0.000469 0.000782 0.000000
0.000474 0.000783 0.000000
0.000054 0.000445 0.000000
0.000057 0.000450 0.000000
0.000055 0.000454 0.000000
0.000056 0.000461 0.000000
0.000056 0.000466 0.000000
0.000056 0.000471 0.000000
0.000056 0.000477 0.000000
0.000058 0.000481 0.000000
0.000053 0.000483 0.000000
0.000057 0.000487 0.000000
0.000056 0.000497 0.000000
0.000060 0.000497 0.000000
0.000304 0.000660 0.000000
0.000342 0.000743 0.000000
0.000351 0.000742 0.000000
[...]
POINT_DATA 9387
SCALARS density float 1
LOOKUP_TABLE default
4430.376419
4429.242291
4426.651805
4423.943318
4422.588438
4429.794137
4439.334005
4436.003706
4444.676868
4423.900950
4432.356489
4399.117372
4427.926354
4440.105750
4440.989572
4431.012550
4442.034791
4442.464637
4456.476490
4453.772117
4421.584026
4424.812787
4408.377170
4449.300378
4428.216451
4419.773749
4445.270919
4440.486483
4418.131009
4455.411929
4441.906709
4448.065956
4427.932548
4429.784763
4427.734171
4437.091173
4440.195243
4420.177719
4413.084664
4411.392881
4402.555584
4423.563858
4443.722179
4401.402875
4418.477991
4439.227073
4414.153499
4401.903649
4416.365182
4415.498516
4423.940584
4444.812559
4415.485322
4436.924794
4436.682374
4392.767533
4435.648271
4388.608547
4389.533648
4416.774512
4412.098760
4411.271699
4408.610283
4413.989637
4423.844728
4434.558186
4436.026335
4412.915315
4429.272668
4421.966340
4463.903897
4407.618849
4478.160549
4361.984299
4475.358509
4403.441670
4409.413133
4480.660019
4434.526626
4386.180901
4408.293860
4422.584817
4438.646121
4398.916531
4443.678204
4416.058987
4415.012711
4420.235342
4392.965358
4430.461114
4450.003367
4392.769819
4443.306079
4436.024346
4448.102910
4413.189917
4435.337791
4445.101494
4447.483194
4431.958659
4441.409213
4392.180529
4453.990427
4359.458278
4476.569672
4393.354869
4516.167480
4397.057480
4436.337156
4342.662621
4433.308711
4435.930534
4442.094243
4455.346374
4420.157359
4431.658715
4432.234755
4411.100009
4447.791122
4440.950604
4396.946404
4464.180068
4452.033001
4501.312971
4452.257857
4341.204235
4518.991607
4444.561731
4434.266556
4414.666506
4433.835508
4405.416394
4465.341161
4431.881483
4450.249841
4450.215324
4475.812564
4361.119692
4476.783606
4439.687731
4421.341510
4380.456683
4469.779554
4395.676848
4534.658287
4450.261012
4475.062767
4445.182806
4424.764614
4444.590634
4410.622159
4437.794573
4411.755763
4417.999986
4370.876267
4444.825805
4455.802260
4443.946623
4346.550617
4438.618588
4427.802443
4437.003711
4419.262183
4446.067706
4437.169312
4392.933220
4461.739148
4369.323740
4433.211711
4465.635313
4410.940982
4427.755194
4427.111673
4485.140988
4366.463067
4344.028944
4479.271457
4390.828310
4428.807056
4411.540872
4435.697659
4412.865261
4469.066674
4399.018985
4431.845568
4462.011471
4367.150516
4492.391192
4471.829939
4390.827989
4443.941364
4416.484607
4433.319964
4417.224305
4427.136458
4430.203295
4422.811693
4459.692280
4430.166738
4452.770490
4439.125991
4407.363596
4457.004280
4425.263728
4420.390810
4432.096516
4437.680838
4462.787566
4420.651127
4405.703759
4430.703584
4446.513367
4430.622591
4422.860553
4445.181795
4449.184725
4402.908224
4394.970363
4409.122727
4451.440418
4486.321138
4396.075408
4408.867248
4443.337593
4435.358576
4423.461618
4430.809152
4421.784332
4416.378171
4409.668052
4452.490191
4431.789557
4423.834164
4428.379487
4417.735201
4445.268555
4427.081928
4419.981659
4433.109142
4407.190688
4414.219306
4444.564310
4455.163261
4424.772201
4434.835707
4409.669550
4416.209126
4419.520322
4452.434944
4459.441458
4399.225174
4477.691134
4430.305814
4436.945058
4415.194069
4418.927078
4426.187920
4428.053757
4438.650020
4394.374939
4447.396169
4442.630530
4452.663616
4420.279285
4447.897945
4434.042449
4434.277004
4422.627415
4589.753508
4376.095219
4440.831795
4435.770777
4390.666749
4426.779340
4419.838790
4442.055593
4436.006968
4456.102188
4450.022801
4437.150064
4427.480485
4402.717201
4447.441227
4419.121625
4400.693761
4396.337523
4430.651280
4436.470395
4428.827169
4415.951933
4438.768253
4422.620923
4416.047225
4392.235763
4454.518157
4422.346484
4453.172895
4421.073977
4470.719778
4439.110341
4492.409588
4416.271767
4423.200088
4463.509188
4441.242097
4423.795687
4444.814948
4433.256576
4424.697947
4441.899390
4412.031009
4409.363784
4408.858488
4443.111366
4397.677873
4426.412651
4429.556053
4471.293651
4419.749881
4414.698992
4433.965157
4411.489634
4444.600411
4429.690774
4426.008504
4451.654764
4448.020571
4376.530198
4380.029694
4413.395726
4524.050935
4415.221685
4434.141828
4481.606857
4442.451500
4450.690463
4446.023971
4415.691652
4448.707844
4445.278453
4474.530323
4443.177482
4441.578793
4401.282635
4459.626429
4436.959715
4467.242394
4446.354758
4449.124565
4411.541787
4426.392820
4431.270073
4430.097205
4424.463893
4420.037169
4438.461571
4406.113016
4443.309279
4416.246434
4435.470115
4475.509767
4358.785230
4423.061734
4399.237384
4426.884686
4413.574322
4497.553665
4424.778996
4449.158645
4424.769021
4466.585996
4419.738693
4394.572976
4435.480051
4455.847641
4404.844017
4438.066633
4408.408790
4422.685201
4430.629868
4432.066354
4436.566934
4434.894672
4419.089219
4420.723473
4405.171060
4442.703703
4405.124476
4434.464703
4442.799163
4419.448111
4413.849724
4475.064447
4406.612936
4446.287671
4435.863143
4417.567109
4434.613015
4437.387851
4404.042484
4397.922602
4444.003787
4398.704166
4446.553452
4399.480819
4423.527543
4420.642662
4442.382782
4436.992165
4452.383475
4459.958736
4443.295211
4427.705672
4427.734818
4421.858102
4432.003777
4441.010916
4423.655428
4425.034041
4437.152224
4438.853867
4413.045048
4432.509070
4427.135776
4444.606997
4370.108602
4464.641975
4430.998077
4431.092512
4423.701289
4432.513527
4407.952711
4431.255490
4424.237093
4450.457284
4412.645424
4421.724813
4436.491900
4449.498751
4441.171198
4408.682621
4417.599448
4402.213339
4438.250019
4423.414380
4438.053580
4424.334914
4425.713244
4417.823121
4418.036508
4414.408343
4417.612320
4424.573969
4428.456778
4432.521804
4427.145068
4384.946882
4405.452784
4431.918533
4458.974754
4560.591770
4421.137272
4414.901153
4460.957762
4443.666432
4396.613893
4445.432607
4483.361178
4385.545223
4433.484907
4458.415300
4400.802467
4399.001452
4447.314791
4422.809512
4440.234821
4426.002423
4424.469579
4430.572957
4428.289949
4450.482554
4421.728287
4420.566984
4408.221868
4420.153871
4420.724514
4443.175750
4447.153042
4483.662787
4350.525557
4439.869272
4450.600896
4420.803248
4418.499630
4421.935350
4344.143509
4451.415299
4481.725655
4447.086372
4436.629402
4419.770233
4413.446466
4423.260201
4436.508704
4474.938737
4458.805500
4442.190762
4409.653822
4420.029038
4430.441625
4423.337955
4425.632708
4408.624156
4421.579044
4424.734584
4428.694764
4431.165030
4407.337984
4445.504435
4409.290720
4461.241940
4475.524309
4421.154369
4417.595248
4418.618380
4431.353208
4467.980930
4427.353059
4439.365727
4428.707881
4446.281269
4418.630534
4435.504561
4467.101162
4430.316185
4424.441696
4418.763425
4444.326209
4423.473140
4434.951253
4437.947669
4442.082678
4425.827192
4432.375655
4450.417687
4434.214778
4436.935833
4444.682844
4451.790005
4421.544556
4436.383704
4435.711240
4388.595992
4369.651853
4436.551263
4460.195594
4485.852954
4487.693833
4477.131952
4434.649958
4431.990725
4383.026544
4468.816887
4466.131609
4433.864652
4477.642044
4452.533488
4434.513140
4408.297104
4454.628104
4405.996061
4432.547886
4405.261311
4430.885108
4428.476798
4428.235895
4418.853162
4433.481059
4426.218363
4422.378223
4410.208667
4452.761381
4440.352444
4459.563821
4428.255964
4448.951619
4397.946227
4425.668347
4418.225855
4417.772589
4428.549825
4408.395456
4434.556736
4402.322299
4445.507905
4413.736322
4413.837872
4413.202272
4413.425898
4408.124835
4450.509285
4415.893080
4455.211120
4434.957451
4448.833735
4434.162509
4419.263025
4428.164321
4445.751873
4435.978790
4414.605478
4418.481441
4419.308405
4406.610606
4403.208872
4404.191322
4484.863991
4444.306106
4424.673791
4434.899466
4412.113060
4416.918448
4479.080595
4434.912835
4413.235256
4443.502351
4437.682901
4376.879165
4500.808247
4425.872026
4476.633955
4409.721129
4458.736847
4396.490957
4424.760124
4410.890437
4408.197648
4436.317692
4426.919585
4429.453490
4419.955251
4429.718621
4425.796717
4431.355315
4438.296298
4432.578614
4401.724144
4383.870796
4459.964369
4481.755418
4382.813687
4550.808110
4424.527804
4422.360710
4423.588070
4461.720424
4419.384186
4436.585698
4408.437118
4478.851963
4455.362076
4475.472294
4448.501939
4413.927457
4458.099021
4449.578304
4415.021210
4478.805853
4437.416224
4408.536579
4436.337443
4420.936337
4446.419371
4438.585076
4417.227527
4419.704844
4431.631886
4434.468076
4415.993468
4426.094498
4472.836525
4383.017606
4429.136086
4433.347016
4443.542516
4429.792027
4419.615288
4402.011983
4437.613194
4463.503781
4494.305181
4451.459688
4412.742373
4365.757849
4427.608102
4437.278283
4457.970635
4416.028320
4435.503720
4424.022835
4427.344421
4424.755301
4431.898485
4435.895046
4430.349338
4434.166314
4433.509718
4443.565978
4407.336836
4419.232514
4430.063886
4395.991404
4442.353648
4392.129053
4359.511682
4480.779390
4425.663788
4407.802592
4433.023173
4450.582442
4457.645255
4446.517482
4428.727492
4415.724248
4394.355862
4373.042422
4379.226672
4454.050776
4413.447158
4411.448961
4455.385405
4428.190343
4471.581689
4421.917845
4412.697467
4426.524691
4433.921400
4440.990141
4419.589195
4414.782673
4434.168260
4423.338710
4408.548122
4436.882826
4455.199393
4459.949800
4414.009249
4427.277784
4405.151486
4443.216519
4376.798639
4353.058229
4473.593560
4449.661355
4427.104437
4423.632674
4446.989121
4427.797430
4406.696078
4428.932711
4452.493033
4441.959838
4420.434392
4435.819191
4418.206754
4408.648109
4449.376156
4423.351171
4417.263839
4428.403644
4427.992076
4428.459670
4429.023984
4429.125857
4429.530322
4429.622925
4430.019728
4430.146016
4430.627126
4430.733965
4430.933468
4430.953252
4430.197964
4420.755250
4427.141866
4427.240160
4428.053460
4428.693735
4428.885020
4429.510711
4429.514941
4429.958321
4429.829206
4430.051599
4429.991778
4430.416498
4430.568395
4430.296586
4423.451602
4427.043706
4426.934195
4427.404576
4428.324383
4428.173990
4428.963835
4428.737050
4429.536586
4429.404208
4430.250488
4429.952005
4430.013669
4429.704450
4429.382693
4424.665277
4427.362837
4427.340416
4427.845144
4428.383322
4428.614040
4429.032403
4429.149476
4429.448649
4429.138170
4429.295631
4428.758061
4429.321457
4428.393501
4429.614300
4426.040030
4427.602017
4427.471756
4427.606656
4428.092658
4428.007473
4428.608003
4428.430546
4428.949784
4429.019124
4429.590847
4429.165535
4429.588234
4427.888458
4428.703158
4426.415337
4427.813495
4427.927109
4427.737563
4428.637224
4428.252164
4429.038916
4428.613527
4429.374129
4428.534915
4428.946766
4428.368380
4428.380316
4427.710764
4429.247489
4426.774843
4428.006704
4427.813294
4427.816224
4428.066659
4427.936975
4428.428055
4428.240781
4428.666414
4428.748192
4429.415345
4428.888828
4429.309103
4427.634727
4428.416477
4427.079764
4428.231375
4427.976633
4428.048422
4428.444714
4428.399078
4428.708743
4428.615004
4429.028719
4428.531120
4428.769339
4428.205051
4428.992823
4427.183645
4428.287081
4427.050915
4428.169377
4428.021053
4427.797372
4428.132792
4427.783102
4428.374183
4428.006299
4428.642880
4428.495285
4429.575949
4429.225346
4429.942832
4429.051588
4429.581865
4427.404123
4428.341691
4428.037763
4428.127897
4428.351159
4428.363141
4428.523520
4428.550500
4428.655083
4428.738181
4428.476890
4428.924370
4429.529976
4429.954152
4431.055878
4427.087264
4428.362374
4427.872055
4427.925694
4427.853246
4427.896998
4427.913650
4428.004058
4428.240177
4428.450927
4429.287354
4429.507983
4430.712666
4430.811043
4431.370788
4427.208035
4428.506974
4427.800518
4428.185763
4428.159280
4428.177348
4428.304788
4428.209381
4428.465081
4428.260771
4428.423749
4428.412380
4429.198447
4430.502985
4431.540082
4427.251260
4428.312901
4427.836401
4427.931302
4427.581180
4427.838292
4427.543337
4427.896241
4427.659229
4428.319976
4428.204788
4429.107902
4429.344145
4429.687217
4431.086985
4427.275971
4435.614387
4428.553267
4452.616450
4426.711401
4458.825688
4428.162296
4420.336158
4404.144619
4414.521725
4406.915650
4431.164169
4420.953861
4440.684835
4432.544158
4414.128672
4427.258090
4428.339784
4427.869057
4427.891105
4428.068005
4427.943184
4427.958278
4427.946524
4427.881185
4427.581588
4427.632576
4427.247133
4427.156266
4428.005440
4428.401210
4424.529806
4440.831742
4424.739042
4421.923560
4417.453542
4439.755800
4434.901646
4407.527816
4443.150654
4437.999112
4414.472094
4445.896171
4425.619715
4462.899307
4391.013663
4398.616373
4426.905334
4428.066370
4427.851047
4427.574162
4427.708558
4427.075428
4427.756883
4426.766198
4427.652550
4426.986576
4427.882323
4427.159199
4428.078269
4426.230952
4427.711650
4423.386493
4448.735450
4429.017477
4446.387166
4397.532030
4444.290825
4421.170667
4421.018484
4413.757068
4413.124030
4468.833156
4419.370911
4414.570322
4454.195137
4373.841257
4443.526143
4427.017595
4428.058877
4427.994832
4427.376397
4428.066029
4427.471965
4427.726297
4427.339803
4427.527725
4426.661473
4427.003466
4425.684799
4426.169688
4423.512655
4427.237106
4408.789337
4399.937859
4414.996927
4380.098137
4409.230644
4441.498996
4431.367408
4458.453534
4441.785143
4403.348693
4438.218685
4406.491835
4401.219889
4386.964012
4404.349943
4429.027709
4426.569585
4428.133875
4427.462866
4427.582046
4427.335723
4426.900492
4427.257335
4426.652898
4426.908721
4426.782111
4426.714445
4425.958571
4426.254580
4423.604041
4421.778106
4443.025583
4452.440912
4416.494623
4462.078300
4459.429193
4429.389298
4433.368919
4438.353141
4400.682692
4466.151516
4436.783120
4455.384955
4401.699860
4420.710162
4435.028924
4411.139487
4426.572983
4428.221123
4427.400982
4427.688662
4427.261670
4427.648428
4427.161687
4427.195217
4427.059596
4426.157952
4426.136151
4425.298085
4424.461427
4423.613203
4422.753279
4415.719540
4397.029599
4449.610313
4442.084019
4491.182437
4381.877769
4448.172044
4411.873780
4409.125469
4381.218558
4390.979105
4456.345346
4402.127104
4448.686759
4454.566819
4428.273265
4426.652252
4427.871219
4427.628436
4427.108428
4427.381798
4426.788095
4426.895970
4426.883914
4426.247074
4426.925852
4425.804431
4425.996305
4425.621864
4423.890806
4424.112679
4451.041660
4441.831099
4452.090834
4382.122123
4337.990120
4439.133480
4529.354397
4568.855741
4460.173565
4425.720353
4400.368332
4409.780174
4501.725295
4447.532359
4484.512578
4385.823825
4426.484767
4428.035850
4427.378743
4427.555186
4427.310587
4427.249890
4427.496442
4426.602736
4427.208818
4425.648921
4426.455701
4425.056927
4425.093473
4425.276152
4424.703744
4434.956726
4419.347381
4437.183041
4405.787865
4408.392816
4464.280309
4480.762055
4440.593118
4406.054797
4406.554529
4443.339928
4406.819778
4396.381535
4466.410351
4410.508848
4433.215191
4426.399906
4427.792689
4427.555627
4426.965597
4427.453159
4426.750954
4427.086193
4426.462586
4426.846174
4426.224464
4426.499137
4426.150055
4426.381843
4425.854283
4426.553601
4427.575995
4453.622837
4400.182854
4434.901632
4417.944058
4432.942618
4446.506211
4398.393251
4442.418549
4438.572038
4421.703429
4390.975332
4414.836316
4436.107359
4392.048590
4416.786698
4426.460393
4427.757111
4427.691871
4427.086196
4427.753567
4426.878275
4427.443515
4426.799717
4426.456130
4426.111482
4426.159693
4424.999774
4426.443926
4424.459417
4426.696201
4420.795382
4431.091376
4438.818240
4438.332668
4378.588323
4407.369413
4454.353084
4526.512112
4418.399000
4403.558100
4418.893474
4433.800170
4357.013396
4435.146002
4488.064376
4446.273419
4426.458417
4427.936716
4427.283816
4427.472617
4426.951292
4426.983278
4426.914373
4425.918872
4426.994678
4425.721150
4426.542950
4426.158020
4425.644331
4424.463354
4425.093524
4435.101432
4428.230660
4437.169271
4421.653533
4427.725726
4429.172040
4442.931584
4474.080250
4396.373142
4406.611407
4421.414018
4444.956503
4435.819366
4419.169622
4437.942464
4388.484496
4426.565614
4427.823325
4427.587677
4427.004249
4427.590907
4426.717453
4427.030397
4426.765845
4426.271546
4426.113070
4426.427155
4424.892148
4425.794283
4424.253519
4423.106460
4444.304940
4442.010763
4414.560962
4430.608641
4399.985291
4419.820571
4451.585172
4438.612763
4474.511465
4460.762097
4428.669126
4391.544009
4421.440863
4394.699971
4406.842090
4474.897537
4426.656852
4427.657579
4427.765692
4426.819255
4427.385219
4426.412067
4427.100820
4426.063819
4427.018546
4426.661221
4426.299784
4426.292334
4425.507641
4425.295819
4426.236563
4435.431259
4411.264561
4417.988511
4413.420797
4392.362820
4448.036662
4460.198418
4449.517149
4425.682198
4400.398393
4453.574236
4451.302133
4432.093010
4402.415887
4444.721183
4481.414510
4426.664536
4428.044073
4427.223154
4427.622414
4427.042802
4427.250555
4427.273126
4426.917345
4427.173584
4425.591334
4426.602454
4425.029979
4425.841151
4424.219702
4425.898931
4444.418398
4412.001157
4415.646423
4443.995811
4427.856490
4423.955922
4504.484504
4401.416001
4466.015949
4446.302033
4462.291256
4448.135545
4449.601666
4417.342756
4424.042625
4443.855793
4426.491017
4427.915790
4427.612438
4426.876602
4427.620224
4426.914911
4427.053373
4426.815337
4426.354905
4426.685825
4425.937954
4425.709808
4426.567690
4425.633360
4425.199226
4427.653338
4428.713781
4408.863293
4436.111817
4458.400754
4465.594418
4419.962897
4493.600326
4445.787150
4451.932549
4451.645904
4427.780748
4452.664211
4433.501026
4401.245128
4422.340459
4426.758462
4427.890644
4427.589243
4427.604059
4427.554901
4427.153858
4427.645862
4426.570502
4427.253164
4425.618104
4426.740666
4425.972584
4426.151343
4425.983292
4425.543530
4425.444386
4448.353830
4439.540466
4413.327711
4364.490099
4435.757378
4474.711075
4502.511971
4440.490591
4473.867822
4453.526629
4450.807901
4418.149402
4394.390644
4444.178195
4417.414340
4426.716355
4428.206044
4427.448027
4427.635369
4427.295401
4427.552960
4427.158584
4427.252578
4427.062611
4427.268369
4426.828900
4426.926347
4426.844584
4426.101880
4427.499711
4430.304154
4421.343577
4412.732394
4490.245865
4423.290898
4395.430643
4487.616262
4499.009616
4473.604234
4424.484891
4458.367349
4452.487382
4453.802387
4428.852216
4376.492568
4419.698099
4426.834608
4428.039076
4427.731253
4427.394558
4427.899930
4427.194873
4427.467912
4427.165369
4426.753600
4426.041316
4426.424919
4425.545253
4426.750579
4426.099129
4422.937555
4448.070402
4416.429144
4424.650063
4401.316329
4428.384170
4462.937826
4486.385675
4476.344907
4463.837289
4460.727423
4419.780200
4420.305689
4471.110836
4451.820541
4450.893678
4410.857299
4426.980273
4427.889799
4427.927717
4427.492528
4427.464814
4426.858081
4427.443746
4425.946989
4426.911045
4426.096933
4426.806736
4426.662634
4426.987702
4425.815448
4427.963695
4427.777841
4432.166231
4462.036121
4460.244685
4444.484426
4444.496891
4479.304880
4475.881526
4473.053957
4446.289157
4414.524986
4426.268387
4374.273100
4434.110142
4444.701189
4423.531686
4426.890277
4428.324707
4427.671227
4427.476749
4427.525470
4427.313386
4427.136761
4427.345158
4427.112538
4426.858392
4426.773336
4426.730905
4426.206957
4424.826074
4427.890635
4439.641265
4428.846183
4422.940898
4432.899560
4451.845615
4461.146905
4482.533139
4471.696793
4457.069372
4477.233099
4451.798700
4420.096278
4373.777343
4392.397925
4340.337712
4423.946971
4426.820748
4428.151756
4427.746391
4427.502380
4427.791218
4427.243728
4427.988261
4427.244807
4427.681895
4427.416613
4427.796129
4425.282882
4427.665682
4427.575899
4423.750133
4433.882083
4441.870198
4435.520601
4438.987753
4433.132457
4445.320169
4460.782943
4453.320095
4458.612021
4459.410596
4471.438071
4439.953213
4435.323303
4416.800687
4533.195828
4414.268847
4426.916982
4428.295750
4427.976050
4427.924991
4427.827027
4427.924908
4427.676680
4427.193333
4427.687724
4426.127155
4425.307587
4425.993875
4425.856262
4424.978760
4427.426996
4421.326416
4441.385266
4401.651044
4439.325302
4440.114094
4418.327691
4448.518915
4448.549448
4446.571980
4450.760858
4457.900522
4471.031973
4446.541292
4443.873213
4412.118518
4436.605568
4427.085392
4428.745691
4427.669652
4428.245086
4427.645227
4427.917800
4427.082852
4427.941263
4426.237759
4427.437873
4425.704474
4424.696014
4425.384960
4427.177139
4427.231155
4434.247152
4426.635791
4417.768496
4451.759938
4439.620261
4457.795874
4457.238761
4464.645548
4443.740210
4458.366194
4456.228142
4451.784500
4447.467969
4429.678967
4363.409467
4404.249042