# vtk DataFile Version 2.0
mfree iwf
ASCII

DATASET UNSTRUCTURED_GRID
POINTS 10548 float
0.000000 0.000445 0.000000
0.000000 0.000450 0.000000
0.000000 0.000455 0.000000
0.000000 0.000460 0.000000
0.000000 0.000465 0.000000
0.000000 0.000470 0.000000
0.000000 0.000475 0.000000
0.000000 0.000480 0.000000
0.000000 0.000485 0.000000
0.000000 0.000490 0.000000
-0.000000 0.000496 0.000000
0.000002 0.000500 0.000000
0.000716 0.000885 0.000000
0.000724 0.000887 0.000000
0.000771 0.000891 0.000000
0.000777 0.000890 0.000000
0.000776 0.000890 0.000000
0.000783 0.000890 0.000000
0.000791 0.000889 0.000000
0.000786 0.000890 0.000000
0.000801 0.000890 0.000000
0.000828 0.000888 0.000000
0.000834 0.000886 0.000000
0.000838 0.000884 0.000000
0.000843 0.000882 0.000000
0.000848 0.000880 0.000000
0.000852 0.000878 0.000000
0.000857 0.000876 0.000000
0.000860 0.000874 0.000000
0.000866 0.000871 0.000000
0.000872 0.000869 0.000000
0.000895 0.000863 0.000000
0.000005 0.000445 0.000000
0.000005 0.000450 0.000000
0.000005 0.000455 0.000000
0.000005 0.000460 0.000000
0.000005 0.000465 0.000000
0.000005 0.000470 0.000000
0.000005 0.000475 0.000000
0.000005 0.000480 0.000000
0.000005 0.000485 0.000000
0.000006 0.000490 0.000000
0.000003 0.000496 0.000000
0.000006 0.000499 0.000000
0.000766 0.000889 0.000000
0.000774 0.000883 0.000000
0.000808 0.000888 0.000000
0.000814 0.000887 0.000000
0.000820 0.000887 0.000000
0.000823 0.000886 0.000000
0.000826 0.000885 0.000000
0.000830 0.000882 0.000000
0.000834 0.000880 0.000000
0.000840 0.000878 0.000000
0.000846 0.000876 0.000000
0.000853 0.000873 0.000000
0.000857 0.000869 0.000000
0.000866 0.000867 0.000000
0.000870 0.000865 0.000000
0.000875 0.000863 0.000000
0.000886 0.000863 0.000000
0.000889 0.000862 0.000000
0.000883 0.000864 0.000000
0.000893 0.000862 0.000000
0.000010 0.000445 0.000000
0.000010 0.000450 0.000000
0.000010 0.000455 0.000000
0.000010 0.000460 0.000000
0.000010 0.000465 0.000000
0.000011 0.000470 0.000000
0.000009 0.000475 0.000000
0.000011 0.000479 0.000000
0.000009 0.000486 0.000000
0.000012 0.000489 0.000000
0.000009 0.000497 0.000000
0.000011 0.000498 0.000000
0.000767 0.000885 0.000000
0.000778 0.000882 0.000000
0.000794 0.000885 0.000000
0.000801 0.000886 0.000000
0.000805 0.000886 0.000000
0.000811 0.000886 0.000000
0.000805 0.000880 0.000000
0.000814 0.000879 0.000000
0.000819 0.000880 0.000000
0.000825 0.000880 0.000000
0.000835 0.000877 0.000000
0.000840 0.000875 0.000000
0.000841 0.000871 0.000000
0.000846 0.000868 0.000000
0.000853 0.000869 0.000000
0.000863 0.000866 0.000000
0.000878 0.000862 0.000000
0.000881 0.000861 0.000000
0.000888 0.000858 0.000000
0.000891 0.000853 0.000000
0.000015 0.000445 0.000000
0.000016 0.000450 0.000000
0.000014 0.000455 0.000000
0.000016 0.000460 0.000000
0.000015 0.000465 0.000000
0.000016 0.000469 0.000000
0.000014 0.000476 0.000000
0.000016 0.000480 0.000000
0.000014 0.000485 0.000000
0.000016 0.000489 0.000000
0.000014 0.000495 0.000000
0.000016 0.000498 0.000000
0.000025 0.000500 0.000000
0.000781 0.000883 0.000000
0.000796 0.000884 0.000000
0.000794 0.000880 0.000000
0.000809 0.000880 0.000000
0.000815 0.000885 0.000000
0.000822 0.000876 0.000000
0.000828 0.000874 0.000000
0.000826 0.000869 0.000000
0.000834 0.000872 0.000000
0.000847 0.000863 0.000000
0.000848 0.000872 0.000000
0.000855 0.000862 0.000000
0.000859 0.000865 0.000000
0.000862 0.000861 0.000000
0.000866 0.000861 0.000000
0.000872 0.000858 0.000000
0.000877 0.000856 0.000000
0.000882 0.000855 0.000000
0.000890 0.000850 0.000000
0.000020 0.000445 0.000000
0.000021 0.000450 0.000000
0.000019 0.000456 0.000000
0.000022 0.000459 0.000000
0.000019 0.000467 0.000000
0.000025 0.000468 0.000000
0.000018 0.000475 0.000000
0.000022 0.000478 0.000000
0.000019 0.000486 0.000000
0.000021 0.000491 0.000000
0.000021 0.000497 0.000000
0.000022 0.000499 0.000000
0.000039 0.000500 0.000000
0.000782 0.000873 0.000000
0.000787 0.000880 0.000000
0.000795 0.000875 0.000000
0.000800 0.000882 0.000000
0.000811 0.000875 0.000000
0.000816 0.000869 0.000000
0.000829 0.000873 0.000000
0.000820 0.000873 0.000000
0.000834 0.000862 0.000000
0.000837 0.000858 0.000000
0.000842 0.000856 0.000000
0.000847 0.000858 0.000000
0.000857 0.000857 0.000000
0.000864 0.000852 0.000000
0.000871 0.000853 0.000000
0.000874 0.000852 0.000000
0.000883 0.000849 0.000000
0.000886 0.000852 0.000000
0.000889 0.000846 0.000000
0.000025 0.000445 0.000000
0.000026 0.000450 0.000000
0.000024 0.000455 0.000000
0.000026 0.000462 0.000000
0.000022 0.000464 0.000000
0.000025 0.000472 0.000000
0.000023 0.000477 0.000000
0.000027 0.000481 0.000000
0.000023 0.000485 0.000000
0.000026 0.000488 0.000000
0.000026 0.000492 0.000000
0.000027 0.000500 0.000000
0.000745 0.000889 0.000000
0.000785 0.000882 0.000000
0.000789 0.000883 0.000000
0.000805 0.000875 0.000000
0.000802 0.000872 0.000000
0.000816 0.000875 0.000000
0.000820 0.000867 0.000000
0.000811 0.000871 0.000000
0.000823 0.000861 0.000000
0.000833 0.000867 0.000000
0.000840 0.000865 0.000000
0.000838 0.000868 0.000000
0.000850 0.000865 0.000000
0.000853 0.000858 0.000000
0.000867 0.000856 0.000000
0.000861 0.000855 0.000000
0.000878 0.000850 0.000000
0.000872 0.000847 0.000000
0.000882 0.000845 0.000000
0.000886 0.000841 0.000000
0.000030 0.000445 0.000000
0.000031 0.000450 0.000000
0.000029 0.000456 0.000000
0.000030 0.000460 0.000000
0.000032 0.000464 0.000000
0.000028 0.000469 0.000000
0.000032 0.000472 0.000000
0.000031 0.000477 0.000000
0.000031 0.000486 0.000000
0.000031 0.000492 0.000000
0.000033 0.000497 0.000000
0.000030 0.000499 0.000000
0.000049 0.000500 0.000000
0.000775 0.000877 0.000000
0.000792 0.000872 0.000000
0.000799 0.000875 0.000000
0.000798 0.000870 0.000000
0.000807 0.000869 0.000000
0.000818 0.000864 0.000000
0.000830 0.000865 0.000000
0.000825 0.000865 0.000000
0.000831 0.000858 0.000000
0.000842 0.000860 0.000000
0.000851 0.000850 0.000000
0.000850 0.000854 0.000000
0.000856 0.000852 0.000000
0.000860 0.000846 0.000000
0.000863 0.000849 0.000000
0.000871 0.000843 0.000000
0.000876 0.000845 0.000000
0.000881 0.000842 0.000000
0.000885 0.000837 0.000000
0.000035 0.000445 0.000000
0.000035 0.000450 0.000000
0.000034 0.000455 0.000000
0.000039 0.000455 0.000000
0.000034 0.000467 0.000000
0.000037 0.000472 0.000000
0.000032 0.000479 0.000000
0.000042 0.000479 0.000000
0.000035 0.000483 0.000000
0.000034 0.000488 0.000000
0.000037 0.000491 0.000000
0.000036 0.000498 0.000000
0.000704 0.000880 0.000000
0.000741 0.000889 0.000000
0.000786 0.000872 0.000000
0.000794 0.000866 0.000000
0.000808 0.000864 0.000000
0.000803 0.000859 0.000000
0.000813 0.000865 0.000000
0.000816 0.000857 0.000000
0.000827 0.000858 0.000000
0.000826 0.000853 0.000000
0.000833 0.000849 0.000000
0.000843 0.000848 0.000000
0.000846 0.000851 0.000000
0.000853 0.000844 0.000000
0.000866 0.000845 0.000000
0.000862 0.000834 0.000000
0.000872 0.000840 0.000000
0.000875 0.000838 0.000000
0.000880 0.000837 0.000000
0.000883 0.000832 0.000000
0.000040 0.000445 0.000000
0.000041 0.000450 0.000000
0.000037 0.000462 0.000000
0.000040 0.000458 0.000000
0.000041 0.000462 0.000000
0.000040 0.000468 0.000000
0.000041 0.000472 0.000000
0.000037 0.000477 0.000000
0.000041 0.000488 0.000000
0.000042 0.000491 0.000000
0.000041 0.000497 0.000000
0.000044 0.000498 0.000000
0.000586 0.000775 0.000000
0.000771 0.000882 0.000000
0.000777 0.000872 0.000000
0.000791 0.000860 0.000000
0.000803 0.000865 0.000000
0.000813 0.000859 0.000000
0.000807 0.000860 0.000000
0.000821 0.000857 0.000000
0.000832 0.000854 0.000000
0.000836 0.000852 0.000000
0.000829 0.000849 0.000000
0.000839 0.000845 0.000000
0.000847 0.000845 0.000000
0.000855 0.000839 0.000000
0.000855 0.000847 0.000000
0.000861 0.000842 0.000000
0.000865 0.000840 0.000000
0.000872 0.000833 0.000000
0.000877 0.000832 0.000000
0.000881 0.000828 0.000000
0.000044 0.000445 0.000000
0.000047 0.000450 0.000000
0.000044 0.000454 0.000000
0.000047 0.000461 0.000000
0.000044 0.000468 0.000000
0.000046 0.000473 0.000000
0.000046 0.000479 0.000000
0.000039 0.000483 0.000000
0.000052 0.000486 0.000000
0.000045 0.000483 0.000000
0.000048 0.000493 0.000000
0.000050 0.000498 0.000000
0.000590 0.000783 0.000000
0.000762 0.000889 0.000000
0.000790 0.000875 0.000000
0.000799 0.000865 0.000000
0.000797 0.000860 0.000000
0.000811 0.000856 0.000000
0.000816 0.000851 0.000000
0.000821 0.000853 0.000000
0.000825 0.000846 0.000000
0.000835 0.000844 0.000000
0.000841 0.000852 0.000000
0.000850 0.000841 0.000000
0.000841 0.000840 0.000000
0.000850 0.000835 0.000000
0.000859 0.000838 0.000000
0.000866 0.000835 0.000000
0.000866 0.000830 0.000000
0.000870 0.000831 0.000000
0.000875 0.000828 0.000000
0.000879 0.000823 0.000000
0.000049 0.000445 0.000000
0.000052 0.000450 0.000000
0.000048 0.000456 0.000000
0.000054 0.000458 0.000000
0.000047 0.000464 0.000000
0.000051 0.000472 0.000000
0.000051 0.000467 0.000000
0.000051 0.000477 0.000000
0.000047 0.000488 0.000000
0.000052 0.000491 0.000000
0.000057 0.000492 0.000000
0.000053 0.000498 0.000000
0.000653 0.000851 0.000000
0.000755 0.000883 0.000000
0.000768 0.000877 0.000000
0.000790 0.000864 0.000000
0.000800 0.000856 0.000000
0.000805 0.000854 0.000000
0.000807 0.000849 0.000000
0.000811 0.000852 0.000000
0.000823 0.000841 0.000000
0.000820 0.000848 0.000000
0.000828 0.000841 0.000000
0.000836 0.000839 0.000000
0.000843 0.000836 0.000000
0.000846 0.000840 0.000000
0.000854 0.000833 0.000000
0.000858 0.000827 0.000000
0.000858 0.000831 0.000000
0.000870 0.000824 0.000000
0.000874 0.000823 0.000000
0.000877 0.000819 0.000000
0.000054 0.000445 0.000000
0.000057 0.000450 0.000000
0.000053 0.000455 0.000000
0.000053 0.000463 0.000000
0.000059 0.000466 0.000000
0.000053 0.000473 0.000000
0.000058 0.000477 0.000000
0.000057 0.000480 0.000000
0.000052 0.000483 0.000000
0.000057 0.000486 0.000000
0.000056 0.000497 0.000000
0.000059 0.000496 0.000000
0.000673 0.000863 0.000000
0.000761 0.000890 0.000000
0.000760 0.000882 0.000000
[...]
POINT_DATA 10548
SCALARS density float 1
LOOKUP_TABLE default
4429.312162
4431.111287
4431.704713
4426.697422
4433.441411
4429.072651
4426.594558
4427.850432
4435.975602
4420.234208
4430.819523
4403.587386
4420.039093
4433.723800
4427.108083
4428.803921
4438.711413
4429.335536
4440.986762
4440.769251
4423.494362
4424.816350
4407.476782
4446.109243
4429.378608
4414.432069
4439.639177
4440.767652
4412.274244
4445.362596
4425.256907
4414.882193
4429.664342
4424.430301
4421.263634
4430.872286
4431.289620
4421.731206
4431.375736
4428.069890
4413.509211
4427.521500
4450.863878
4408.975275
4419.730582
4421.471139
4414.557370
4421.460174
4418.416756
4432.233900
4452.395126
4440.520649
4436.162712
4405.973031
4427.586710
4387.881722
4430.074659
4398.227394
4423.922998
4461.435558
4418.778773
4429.993468
4404.304424
4404.242611
4424.392310
4430.556288
4442.741541
4422.044627
4425.034907
4418.114819
4455.551594
4389.484064
4473.744318
4372.702342
4454.407115
4397.472664
4439.853596
4440.198343
4434.169566
4407.331544
4428.315615
4405.977386
4461.255015
4418.249771
4410.168646
4390.343957
4409.476781
4461.334277
4416.312846
4415.103717
4463.025162
4419.051972
4424.503574
4428.815590
4460.766147
4412.283078
4424.157948
4435.338244
4438.428859
4413.893828
4450.930659
4411.052326
4463.210741
4385.787255
4479.340783
4382.219684
4516.785688
4404.068135
4436.978983
4412.392955
4417.917492
4429.848220
4463.412330
4455.529293
4413.814971
4447.499233
4391.892392
4428.569291
4436.054855
4440.584185
4397.370614
4450.801245
4440.198855
4459.922931
4446.438126
4355.289974
4488.708962
4453.547394
4437.281057
4434.345524
4447.032459
4432.037739
4419.809138
4458.323643
4421.653726
4452.338922
4470.845668
4368.781507
4470.359515
4435.776949
4418.183218
4419.401107
4438.760041
4437.438847
4463.311646
4425.851336
4424.946155
4442.000933
4468.121982
4415.107941
4432.538431
4411.229824
4427.590979
4423.585925
4442.622030
4450.176951
4476.410596
4419.283403
4359.887045
4417.038797
4430.423669
4427.663674
4434.802566
4414.962680
4426.399249
4406.148580
4472.857370
4345.448584
4432.892535
4477.267646
4407.853961
4428.489779
4428.529385
4423.932524
4414.273000
4397.578162
4473.357519
4421.089637
4411.128985
4426.142553
4445.355983
4424.543629
4435.296151
4439.318729
4432.440514
4457.094687
4376.024080
4439.236760
4438.436187
4396.752674
4458.849592
4408.678084
4424.326039
4426.486933
4424.402239
4430.507485
4442.051579
4433.628360
4385.699291
4455.832028
4442.157801
4406.007312
4457.384542
4423.479566
4421.934113
4406.641503
4438.901477
4415.308859
4408.475922
4443.956905
4441.187985
4439.356903
4455.928188
4436.391368
4441.792848
4449.752182
4440.750666
4388.284316
4406.891471
4449.562897
4462.193980
4390.808994
4434.275066
4437.195319
4434.564073
4426.354476
4438.590549
4442.380647
4442.980651
4437.927732
4457.201781
4436.224065
4417.009077
4424.635736
4420.057451
4443.858036
4419.609182
4417.717886
4428.010464
4422.015462
4457.242734
4455.996026
4430.316219
4428.386035
4413.709833
4431.246492
4420.821925
4446.391355
4405.356070
4436.986579
4416.224402
4449.607408
4437.831257
4442.409438
4410.108743
4415.699894
4431.538276
4427.800337
4416.094625
4440.340365
4418.662017
4435.833999
4443.260548
4412.344884
4449.899560
4432.013683
4431.093309
4421.106780
4428.440765
4437.774494
4398.704294
4417.802989
4392.158907
4438.034211
4407.531790
4424.085574
4445.494186
4406.901107
4437.917461
4396.990590
4417.440555
4401.298029
4437.871883
4437.911812
4423.254197
4421.362320
4428.177552
4438.028881
4435.886368
4418.272792
4418.891777
4430.346352
4401.889258
4421.087670
4445.467358
4417.941978
4448.745394
4425.688087
4468.414133
4432.871544
4435.550750
4438.158226
4397.448211
4461.527153
4414.928291
4433.256919
4399.660531
4455.053082
4407.931496
4454.381856
4459.954511
4437.600599
4443.962888
4441.808116
4461.492924
4431.894286
4414.070371
4447.198198
4418.403559
4431.670571
4430.386918
4422.692942
4402.668078
4450.289410
4459.173927
4465.249602
4408.419160
4374.891833
4379.302135
4428.582133
4519.732373
4406.270414
4438.411074
4453.194556
4417.776951
4456.194621
4448.936569
4413.802319
4442.111472
4450.233626
4434.883847
4439.197213
4435.440566
4423.247720
4382.689868
4458.587794
4454.450759
4448.616801
4391.892141
4411.489028
4427.076951
4427.687300
4437.077730
4433.557679
4450.523769
4388.117900
4455.003118
4463.885483
4424.154163
4462.614005
4478.456866
4354.444541
4410.522723
4398.805821
4433.150682
4429.738683
4409.459798
4418.032286
4448.500364
4412.375485
4405.295262
4427.611422
4436.897959
4415.451189
4409.791184
4412.196826
4450.453461
4436.819302
4445.823131
4431.542984
4409.891597
4428.471151
4438.997367
4432.076977
4418.656243
4436.854904
4411.273771
4370.728458
4422.370316
4438.139717
4395.794891
4432.106371
4439.014382
4429.301095
4435.344993
4426.880848
4412.054645
4433.275521
4454.189672
4385.656028
4395.787648
4437.008106
4419.908341
4444.194650
4434.346700
4418.529113
4447.748515
4459.570465
4379.545521
4433.516362
4423.756524
4436.070319
4423.672969
4453.998892
4417.902732
4438.518494
4440.608592
4419.531724
4428.300796
4438.408129
4456.481601
4464.497480
4428.366006
4383.110525
4461.221281
4375.543588
4472.994322
4424.900518
4417.319597
4429.770601
4393.643052
4411.800881
4437.152384
4414.270844
4437.919115
4427.384269
4398.018099
4447.343844
4436.461544
4424.719986
4413.990102
4432.007805
4423.847943
4453.913904
4420.086799
4452.511581
4411.343819
4429.810157
4435.058550
4420.525210
4378.675370
4467.961790
4420.692611
4447.907039
4415.071691
4446.152788
4412.469429
4411.834597
4437.469648
4452.785698
4425.247791
4424.361084
4426.456888
4466.313494
4454.513789
4433.084716
4453.132404
4460.654390
4355.798599
4428.705165
4436.292745
4428.809251
4440.144005
4407.161985
4429.113643
4410.706216
4397.322376
4405.968668
4438.297953
4435.244340
4435.786675
4425.266680
4480.487604
4426.380276
4420.885382
4394.580302
4465.924256
4447.300194
4455.556801
4360.732449
4394.241440
4454.587461
4433.450133
4413.245151
4424.932781
4455.328522
4445.646701
4452.302039
4403.992710
4448.396668
4437.504178
4425.768685
4441.951128
4450.216334
4392.595817
4449.461840
4411.542759
4442.391060
4432.501702
4446.394410
4421.292337
4422.960465
4425.625021
4426.532976
4444.393289
4438.935596
4400.346770
4449.941756
4376.058264
4478.542644
4435.501965
4493.182842
4422.047778
4427.123822
4429.149291
4419.911603
4433.249774
4429.633668
4457.929254
4444.901085
4441.651820
4444.503174
4422.721043
4425.917281
4451.760866
4415.790108
4431.698373
4403.643814
4421.752279
4456.240979
4404.004744
4446.956978
4414.947013
4444.568536
4444.979164
4442.499122
4396.940517
4431.796665
4421.607609
4421.176586
4407.617863
4420.853643
4425.800371
4373.934793
4439.889500
4472.135360
4429.523846
4431.762023
4443.820054
4440.068942
4438.397237
4437.350112
4472.428804
4469.235202
4416.881093
4452.833413
4440.549967
4448.813193
4421.845253
4441.526451
4432.214044
4402.639532
4442.846018
4442.876211
4421.813352
4428.560093
4411.836232
4425.734380
4414.477338
4451.654529
4454.250931
4454.943895
4432.043409
4447.523546
4444.686120
4403.721316
4396.384608
4431.771706
4414.877215
4417.109513
4426.817426
4431.684108
4436.501689
4428.606245
4445.139473
4434.611068
4432.392979
4439.638837
4411.126988
4416.627595
4423.751594
4442.566837
4437.775117
4443.583116
4445.383622
4414.981013
4429.314281
4423.509362
4446.164717
4403.022334
4447.353363
4443.308219
4402.719085
4407.558390
4416.725205
4396.519163
4443.576182
4455.164303
4432.575128
4432.173028
4433.079157
4438.147009
4442.935135
4458.114164
4454.015204
4437.723832
4405.634923
4412.753223
4488.058630
4410.970739
4437.489381
4435.491845
4451.161205
4406.341835
4410.469285
4427.812606
4405.498114
4442.754528
4437.827635
4432.013482
4428.780028
4420.737858
4444.303208
4403.609839
4428.939736
4406.962945
4441.560249
4412.261680
4450.890160
4489.025005
4399.516920
4494.860575
4429.216197
4412.867760
4432.499310
4466.974858
4441.282316
4438.093048
4409.407522
4437.514756
4410.769319
4453.001485
4469.887945
4441.905934
4444.986476
4425.982277
4448.149130
4447.671923
4455.236903
4430.994622
4408.120446
4432.402099
4435.327797
4432.109775
4439.161656
4419.807749
4437.564356
4426.076615
4449.732687
4407.724880
4431.427995
4382.712672
4437.472589
4432.404307
4425.999605
4424.855894
4426.481471
4443.113489
4453.670456
4431.455321
4432.185885
4443.618838
4404.924486
4351.459387
4425.446314
4428.126013
4467.409962
4443.495313
4430.252080
4403.086751
4433.301235
4415.821868
4433.689900
4437.266286
4414.566524
4437.753921
4423.065932
4417.135859
4428.015520
4426.289782
4423.302321
4402.957956
4447.719879
4411.091002
4391.671550
4461.999932
4428.209584
4426.111062
4394.583800
4455.618223
4456.448895
4429.447714
4438.706781
4420.650864
4427.516516
4387.213502
4372.074468
4433.456476
4364.582767
4377.500414
4445.302166
4425.066004
4446.472603
4412.350473
4424.784759
4416.169902
4439.275594
4407.208790
4430.773753
4445.724316
4427.986058
4430.627027
4401.531668
4452.477966
4465.368070
4449.773336
4424.650329
4424.979759
4437.571460
4448.419911
4407.674806
4389.112596
4375.161095
4442.473666
4414.087519
4455.344051
4419.793973
4442.641617
4434.969084
4447.513579
4469.545496
4470.916092
4448.037249
4414.457281
4447.744991
4417.834742
4458.223629
4418.839637
4424.062408
4429.535004
4429.231721
4429.376911
4429.389959
4429.239807
4429.335595
4429.378034
4429.884276
4430.413670
4431.060181
4431.107815
4430.906603
4430.535889
4430.045614
4425.947802
4429.093557
4429.123431
4429.823608
4430.526367
4431.319630
4431.922010
4432.104130
4431.787654
4430.490043
4429.608973
4429.318040
4429.900105
4430.613147
4430.945397
4427.234162
4428.773378
4428.732065
4428.660177
4428.682611
4427.862004
4427.833416
4427.579137
4428.464744
4429.871988
4431.425564
4431.484535
4430.649886
4430.156424
4429.007687
4427.901653
4428.837991
4429.219948
4429.415003
4430.447252
4431.057739
4432.034687
4432.117595
4431.723799
4430.153771
4428.630582
4428.348420
4428.694757
4429.317511
4430.581065
4428.421607
4428.832366
4428.898409
4428.631819
4428.364662
4427.622898
4427.327506
4426.843654
4428.059466
4429.031080
4431.305870
4430.788566
4430.971036
4428.588463
4429.152564
4428.516534
4428.980744
4429.270764
4429.203445
4430.460754
4430.661418
4431.992345
4431.725977
4431.608820
4429.526987
4428.578122
4427.345329
4428.901076
4428.200224
4429.317655
4428.570893
4428.824023
4429.050817
4428.488559
4428.266370
4427.435820
4427.028469
4426.564705
4427.560879
4428.968628
4430.539428
4430.949140
4429.658292
4428.026649
4428.575894
4428.630271
4429.040126
4429.164725
4429.260281
4430.149782
4430.646055
4431.629140
4431.668136
4431.268295
4429.335457
4428.388988
4427.295406
4428.776241
4428.770912
4429.093585
4428.317134
4428.864182
4428.946497
4428.244265
4428.344884
4427.039693
4427.082458
4425.988224
4427.560526
4428.413992
4430.715586
4430.670002
4431.081043
4429.741819
4431.767912
4428.531826
4428.951026
4429.099683
4429.157273
4429.953658
4430.535295
4431.279733
4431.553716
4430.988991
4429.043413
4428.357665
4427.113526
4429.435420
4428.915353
4431.450294
4428.258946
4428.972232
4428.652613
4428.393495
4427.870415
4427.119223
4426.567971
4425.856808
4427.041675
4428.363643
4429.798452
4430.687039
4429.292545
4428.584147
4426.892555
4428.332132
4428.988277
4428.825807
4429.055233
4429.715856
4430.359986
4430.863176
4431.654590
4430.506560
4428.986989
4427.760708
4426.657964
4427.584726
4427.916756
4427.634216
4428.276653
4428.804467
4428.646159
4428.320660
4427.575947
4427.061227
4426.362868
4425.564297
4426.775573
4427.902897
4429.421476
4430.195441
4429.648485
4428.022368
4430.048873
4467.647265
4450.244089
4427.480010
4450.541497
4404.382744
4462.413303
4432.801584
4427.863717
4391.250624
4454.867860
4434.529500
4398.568343
4435.747376
4463.573724
4423.230703
4427.907239
4428.176043
4428.785950
4428.784595
4428.595414
4429.811640
4429.839596
4430.937338
4431.297982
4430.412237
4428.438391
4427.524504
4426.136446
4427.944880
4428.484874
4430.213582
4439.650886
4399.595615
4405.170514
4395.297194
4400.969403
4444.069336
4434.410619
4374.247368
4416.055175
4408.206499
4434.086669
4428.430395
4439.661722
4455.833489
4421.715220
4399.301049
4427.773841
4428.628217
4428.619088
4427.887478
4427.687817
4426.496519
4426.511714
4424.942237
4426.527081
4427.167787
4429.110936
4429.283778
4428.911186
4427.834601
4429.098435
4439.027805
4441.194175
4425.248194
4444.702122
4404.035139
4444.287419
4417.317059
4412.883961
4411.297199
4427.931122
4445.058158
4412.353316
4441.656586
4424.591077
4453.120448
4434.337480
4428.012304
4428.611357
4428.528445
4428.480818
4429.319539
4429.767236
4430.469429
4431.181092
4430.015658
4428.050724
4426.988000
4425.616069
4426.975488
4425.575499
4429.314072
4417.633376
4400.762878
4413.116033
4395.856004
4404.297263
4447.725848
4428.163967
4440.584464
4446.571294
4440.468003
4414.735968
4438.470595
4378.178265
4393.529614
4420.983795
4449.555497
4427.600343
4428.479818
4428.603343
4427.387238
4427.820608
4426.001811
4426.547285
4424.591510
4426.087462
4426.837170
4428.502794
4428.293639
4427.845683
4424.912713
4424.237411
4435.906780
4455.124424
4437.568161
4456.180105
4436.192463
4429.594555
4445.053979
4431.875379
4431.497159
4415.151705
4409.124461
4449.061839
4420.894090
4444.460614
4423.828441
4420.871225
4427.634543
4428.568863
4428.202358
4428.527636
4428.919055
4429.835737
4430.185085
4431.173733
4429.951000
4427.662576
4426.738936
4425.403217
4425.851699
4425.379727
4424.171980
4414.277181
4413.720017
4452.439671
4411.640657
4483.502517
4388.276066
4438.984130
4434.269591
4438.262222
4413.679765
4399.112410
4426.214918
4409.480439
4404.894964
4444.312831
4419.782312
4427.763651
4428.514408
4428.360119
4427.639537
4427.437078
4426.418979
4426.196234
4424.829474
4425.536792
4427.033678
4427.688483
4428.531462
4426.788475
4425.858858
4425.853478
4443.208826
4424.634659
4430.862013
4412.826778
4367.491216
4451.273238
4434.796457
4431.365467
4424.684353
4416.165758
4434.257394
4457.461542
4465.157830
4424.135701
4467.509737
4394.337747
4427.526561
4428.353046
4428.301005
4428.042481
4429.184077
4429.401485
4430.177764
4431.158972
4429.901893
4427.576794
4427.066966
4425.219187
4426.900048
4426.698614
4426.725882
4432.687338
4437.316658
4439.371274
4433.619788
4429.435173
4462.666379
4409.233735
4417.863006
4429.154999
4425.344332
4442.291054
4380.420902
4460.045083
4406.049333
4429.008490
4438.176935
4427.643331
4428.196239
4428.543345
4427.437958
4427.623405
4425.879740
4426.907469
4423.858712
4426.329083
4425.996195
4428.403156
4428.440807
4427.829170
4427.099090
4429.280199
4419.077404
4414.763535
4404.404706
4417.819976
4448.592267
4439.405580
4433.751821
4425.133750
4342.808648
4452.326326
4418.714874
4404.616989
4435.272807
4415.513794
4406.082962
4407.288347
4427.605261
4427.972594
4428.601204
4427.262975
4429.539852
4428.781502
4430.184208
4430.979738
4429.837731
4427.417320
4427.393477
4425.254564
4428.386895
4426.545517
4429.150097
4436.276853
4414.716871
4449.494115
4458.061288
4379.819667
4419.372978
4427.673414
4442.548400
4413.355407
4439.978114
4419.159020
4441.498992
4360.760733
4469.665784
4398.665126
4441.820160
4427.451732
4428.077285
4428.502167
4427.366722
4427.471989
4425.614970
4426.875492
4423.697927
4425.857471
4425.905798
4427.904213
4428.433412
4427.704117
4426.619885
4429.146242
4429.117818
4418.728585
4448.622331
4449.184105
4453.452601
4427.918815
4430.154480
4475.845404
4366.266018
4466.922978
4432.305726
4447.858119
4450.195961
4379.991833
4398.360912
4386.659826
4427.580274
4428.115514
4428.054527
4427.415191
4428.726326
4428.976107
4429.622917
4430.869360
4429.904068
4427.239792
4427.264367
4425.065471
4427.078407
4426.499324
4425.350021
4414.823309
4440.145229
4411.454690
4401.310611
4416.114276
4416.970753
4446.127460
4445.793865
4475.334925
4404.598873
4436.402765
4392.350920
4414.394507
4415.817495
4423.632706
4457.915499
4427.227092
4428.188989
4428.342618
4427.078518
4427.576318
4425.645522
4426.698128
4424.336872
4425.288980
4426.047768
4427.140988
4427.998118
4425.795306
4425.684372
4425.024704
4423.536115
4450.064291
4419.174024
4431.952531
4428.960418
4433.866756
4438.821558
4439.032374
4416.892958
4389.030115
4411.128418
4464.483127
4429.518850
4420.545752
4519.129594
4448.593332
4427.318231
4428.527999
4427.173382
4428.131285
4427.794728
4429.924252
4428.850997
4431.497766
4429.400145
4427.851469
4426.059297
4425.402868
4426.357115
4425.131252
4427.574781
4431.404347
4456.114403
4387.318801
4454.337895
4442.721666
4423.448825
4427.117620
4431.672769
4391.331706
4429.203561
4416.906999
4427.076934
4425.735172
4442.882041
4414.650779
4453.809412
4427.018440
4428.565178
4427.845611
4427.846708
4426.903354
4426.636146
4425.605643
4424.943935
4424.599001
4425.492549
4426.815846
4427.111543
4425.665367
4425.616856
4423.888098
4434.947345
4424.787846
4410.935678
4420.116691
4449.259336
4438.671315
4423.666408
4445.920674
4449.552479
4441.463486
4410.551003
4417.492782
4415.759647
4404.615866
4393.952907
4398.758894
4427.194011
4428.127154
4427.566844
4427.147074
4428.684117
4428.786039
4429.345082
4430.983714
4429.678233
4427.876763
4426.165967
4425.606228
4425.417330
4426.595075
4424.425042
4421.477334
4425.018102
4417.276872
4423.195667
4376.406207
4441.304744
4434.202550
4426.043396
4399.237314
4477.099371
4426.028253
4423.565830
4433.995506
4414.995136
4410.256253
4432.531952
4427.358383
4428.109425
4428.367782
4427.804860
4426.948033
4426.561401
4426.430036
4424.506481
4425.577030
4424.963984
4426.703531
4426.937135
4426.209705
4424.534088
4427.128728
4418.435391
4420.793462
4402.557239
4449.009016
4399.410476
4431.988820
4438.329738
4440.885651
4442.135354
4445.175140
4447.769604
4427.219949
4428.701982
4452.998528
4452.823708
4419.466684
4427.311030
4427.779403
4427.626572
4426.414552
4428.500938
4427.863398
4429.510654
4430.424657
4429.077487
4427.226556
4426.820816
4423.266235
4426.686777
4424.217806
4424.446332
4424.100827
4408.301804
4408.105488
4447.183248
4381.067780
4409.533869
4445.065242
4423.459899
4472.805110
4462.911561
4443.921806
4420.612497
4453.936581
4455.122954
4406.833897
4433.825063
4427.111887
4427.295094
4429.029413
4425.880261
4428.107532
4424.177909
4427.581901
4421.981388
4425.945342
4423.320068
4425.882792
4426.941853
4424.272354
4422.850711
4426.907169
4427.240818
4451.441931
4411.376977
4464.812088
4371.018131
4436.066832
4430.879757
4436.418760
4433.419175
4465.662553
4446.457766
4456.926397
4434.179704
4416.737037
4384.440395
4425.489856
4427.011375
4427.834495
4427.216004
4426.703938
4427.504555
4428.557671
4429.216071
4430.859663
4429.768465
4428.558593
4427.113110
4424.167755
4424.999289
4423.319370
4422.907318
4426.762556
4422.595786
4417.347129
4380.488432
4415.666365
4444.927394
4623.871432
4442.307525
4434.068922
4446.188000
4393.250465
4404.702670
4389.433216
4436.351142
4403.039668
4441.671223
4426.762297
4428.341767
4427.462014
4427.761115
4427.110448
4426.634985
4426.444102
4425.345786
4425.522260
4424.581842
4426.617795
4425.844734
4424.364535
4423.250742
4424.215056
4420.477258
4430.925138
4442.301029
4416.912610
4443.614271
4417.966083
4419.077469
4474.787795
4372.840459
4434.631975
4430.243878
4427.986419
4442.325211
4414.742708
4543.050480
4413.503921
4426.543148
4427.980250
4427.276162
4426.559103
4427.750403
4428.805849
4428.012666
4431.202809
4429.004663
4427.884791
4424.958525
4425.460739
4424.361613
4424.154694
4421.859643
4422.565845
4417.897620
4448.387928
4416.463532
4474.346833
4459.694290
4433.336734
4419.691223
4441.941817
4428.772385
4438.634500
4446.262695
4467.506267
4427.549661
4305.924107
4437.139952
4427.067469
4428.752479
4427.535814
4428.974080
4426.026380
4427.093253
4424.898823
4425.163038
4422.914895
4424.121951
4423.758311
4424.095268
4423.535797
4424.574495
4420.470796
4425.649477
4429.572249
4405.160807
4410.369485
4454.631243
4409.903209
4441.333848
4442.739390
4436.851788
4436.530543
4415.654610
4460.856725
4449.086722
4387.706284
4376.709966
4402.868791