# vtk DataFile Version 2.0
mfree iwf
ASCII

DATASET UNSTRUCTURED_GRID
POINTS 9720 float
0.000000 0.000445 0.000000
0.000000 0.000450 0.000000
0.000000 0.000455 0.000000
0.000000 0.000460 0.000000
0.000000 0.000465 0.000000
0.000000 0.000470 0.000000
0.000000 0.000475 0.000000
0.000000 0.000480 0.000000
0.000000 0.000485 0.000000
0.000000 0.000490 0.000000
-0.000000 0.000496 0.000000
0.000002 0.000500 0.000000
0.000410 0.000767 0.000000
0.000415 0.000774 0.000000
0.000451 0.000803 0.000000
0.000457 0.000806 0.000000
0.000457 0.000806 0.000000
0.000462 0.000810 0.000000
0.000468 0.000813 0.000000
0.000466 0.000812 0.000000
0.000477 0.000820 0.000000
0.000500 0.000834 0.000000
0.000506 0.000835 0.000000
0.000511 0.000836 0.000000
0.000515 0.000837 0.000000
0.000520 0.000838 0.000000
0.000525 0.000839 0.000000
0.000531 0.000840 0.000000
0.000534 0.000841 0.000000
0.000541 0.000842 0.000000
0.000547 0.000843 0.000000
0.000572 0.000850 0.000000
0.000005 0.000445 0.000000
0.000005 0.000450 0.000000
0.000005 0.000455 0.000000
0.000005 0.000460 0.000000
0.000005 0.000465 0.000000
0.000005 0.000470 0.000000
0.000005 0.000475 0.000000
0.000005 0.000480 0.000000
0.000005 0.000485 0.000000
0.000006 0.000489 0.000000
0.000004 0.000496 0.000000
0.000006 0.000499 0.000000
0.000448 0.000800 0.000000
0.000460 0.000800 0.000000
0.000484 0.000822 0.000000
0.000489 0.000825 0.000000
0.000494 0.000828 0.000000
0.000497 0.000829 0.000000
0.000500 0.000830 0.000000
0.000505 0.000830 0.000000
0.000510 0.000831 0.000000
0.000517 0.000833 0.000000
0.000523 0.000834 0.000000
0.000529 0.000835 0.000000
0.000536 0.000835 0.000000
0.000544 0.000838 0.000000
0.000548 0.000839 0.000000
0.000553 0.000839 0.000000
0.000562 0.000845 0.000000
0.000565 0.000846 0.000000
0.000559 0.000845 0.000000
0.000570 0.000848 0.000000
0.000010 0.000445 0.000000
0.000011 0.000450 0.000000
0.000010 0.000455 0.000000
0.000011 0.000460 0.000000
0.000010 0.000465 0.000000
0.000011 0.000470 0.000000
0.000010 0.000475 0.000000
0.000011 0.000479 0.000000
0.000009 0.000486 0.000000
0.000012 0.000490 0.000000
0.000009 0.000497 0.000000
0.000011 0.000498 0.000000
0.000452 0.000797 0.000000
0.000463 0.000800 0.000000
0.000474 0.000812 0.000000
0.000479 0.000816 0.000000
0.000483 0.000819 0.000000
0.000487 0.000822 0.000000
0.000488 0.000815 0.000000
0.000496 0.000820 0.000000
0.000499 0.000824 0.000000
0.000506 0.000826 0.000000
0.000512 0.000827 0.000000
0.000518 0.000829 0.000000
0.000523 0.000828 0.000000
0.000528 0.000827 0.000000
0.000532 0.000833 0.000000
0.000541 0.000836 0.000000
0.000556 0.000840 0.000000
0.000559 0.000841 0.000000
0.000567 0.000843 0.000000
0.000573 0.000841 0.000000
0.000015 0.000445 0.000000
0.000016 0.000450 0.000000
0.000015 0.000455 0.000000
0.000016 0.000460 0.000000
0.000014 0.000466 0.000000
0.000016 0.000470 0.000000
0.000014 0.000476 0.000000
0.000017 0.000480 0.000000
0.000014 0.000484 0.000000
0.000016 0.000489 0.000000
0.000014 0.000495 0.000000
0.000017 0.000498 0.000000
0.000025 0.000500 0.000000
0.000465 0.000804 0.000000
0.000476 0.000812 0.000000
0.000480 0.000809 0.000000
0.000490 0.000817 0.000000
0.000492 0.000824 0.000000
0.000501 0.000820 0.000000
0.000506 0.000822 0.000000
0.000512 0.000819 0.000000
0.000517 0.000826 0.000000
0.000529 0.000822 0.000000
0.000526 0.000831 0.000000
0.000537 0.000829 0.000000
0.000540 0.000831 0.000000
0.000545 0.000831 0.000000
0.000548 0.000834 0.000000
0.000554 0.000834 0.000000
0.000560 0.000835 0.000000
0.000565 0.000837 0.000000
0.000574 0.000837 0.000000
0.000020 0.000445 0.000000
0.000021 0.000450 0.000000
0.000019 0.000455 0.000000
0.000022 0.000460 0.000000
0.000018 0.000465 0.000000
0.000022 0.000469 0.000000
0.000019 0.000475 0.000000
0.000022 0.000478 0.000000
0.000020 0.000486 0.000000
0.000021 0.000491 0.000000
0.000021 0.000497 0.000000
0.000022 0.000499 0.000000
0.000039 0.000500 0.000000
0.000470 0.000798 0.000000
0.000473 0.000804 0.000000
0.000478 0.000805 0.000000
0.000482 0.000813 0.000000
0.000492 0.000812 0.000000
0.000501 0.000814 0.000000
0.000510 0.000822 0.000000
0.000505 0.000816 0.000000
0.000517 0.000821 0.000000
0.000524 0.000815 0.000000
0.000531 0.000817 0.000000
0.000535 0.000823 0.000000
0.000542 0.000826 0.000000
0.000547 0.000826 0.000000
0.000556 0.000828 0.000000
0.000558 0.000831 0.000000
0.000567 0.000832 0.000000
0.000569 0.000836 0.000000
0.000575 0.000834 0.000000
0.000025 0.000445 0.000000
0.000025 0.000450 0.000000
0.000026 0.000454 0.000000
0.000024 0.000460 0.000000
0.000025 0.000466 0.000000
0.000026 0.000472 0.000000
0.000023 0.000476 0.000000
0.000027 0.000481 0.000000
0.000023 0.000485 0.000000
0.000026 0.000488 0.000000
0.000026 0.000492 0.000000
0.000027 0.000500 0.000000
0.000430 0.000787 0.000000
0.000469 0.000804 0.000000
0.000471 0.000807 0.000000
0.000486 0.000810 0.000000
0.000490 0.000807 0.000000
0.000496 0.000815 0.000000
0.000505 0.000811 0.000000
0.000498 0.000810 0.000000
0.000510 0.000814 0.000000
0.000516 0.000817 0.000000
0.000522 0.000822 0.000000
0.000524 0.000821 0.000000
0.000533 0.000826 0.000000
0.000539 0.000821 0.000000
0.000551 0.000829 0.000000
0.000550 0.000822 0.000000
0.000563 0.000830 0.000000
0.000559 0.000824 0.000000
0.000570 0.000830 0.000000
0.000576 0.000829 0.000000
0.000030 0.000445 0.000000
0.000030 0.000450 0.000000
0.000029 0.000457 0.000000
0.000032 0.000460 0.000000
0.000030 0.000464 0.000000
0.000030 0.000468 0.000000
0.000032 0.000472 0.000000
0.000030 0.000477 0.000000
0.000031 0.000486 0.000000
0.000031 0.000492 0.000000
0.000033 0.000497 0.000000
0.000031 0.000499 0.000000
0.000049 0.000500 0.000000
0.000463 0.000794 0.000000
0.000481 0.000800 0.000000
0.000484 0.000805 0.000000
0.000487 0.000802 0.000000
0.000495 0.000806 0.000000
0.000508 0.000807 0.000000
0.000517 0.000813 0.000000
0.000511 0.000810 0.000000
0.000521 0.000811 0.000000
0.000528 0.000815 0.000000
0.000542 0.000817 0.000000
0.000536 0.000817 0.000000
0.000544 0.000821 0.000000
0.000548 0.000817 0.000000
0.000553 0.000823 0.000000
0.000564 0.000821 0.000000
0.000565 0.000825 0.000000
0.000571 0.000825 0.000000
0.000577 0.000825 0.000000
0.000035 0.000445 0.000000
0.000035 0.000450 0.000000
0.000037 0.000454 0.000000
0.000035 0.000457 0.000000
0.000035 0.000466 0.000000
0.000037 0.000472 0.000000
0.000032 0.000479 0.000000
0.000042 0.000479 0.000000
0.000035 0.000482 0.000000
0.000034 0.000488 0.000000
0.000038 0.000491 0.000000
0.000036 0.000498 0.000000
0.000403 0.000756 0.000000
0.000428 0.000785 0.000000
0.000474 0.000795 0.000000
0.000484 0.000798 0.000000
0.000497 0.000802 0.000000
0.000496 0.000797 0.000000
0.000501 0.000806 0.000000
0.000508 0.000802 0.000000
0.000517 0.000808 0.000000
0.000518 0.000804 0.000000
0.000527 0.000805 0.000000
0.000534 0.000813 0.000000
0.000537 0.000810 0.000000
0.000551 0.000813 0.000000
0.000556 0.000819 0.000000
0.000558 0.000812 0.000000
0.000561 0.000820 0.000000
0.000568 0.000818 0.000000
0.000572 0.000821 0.000000
0.000578 0.000819 0.000000
0.000040 0.000445 0.000000
0.000040 0.000450 0.000000
0.000037 0.000461 0.000000
0.000041 0.000457 0.000000
0.000042 0.000463 0.000000
0.000039 0.000468 0.000000
0.000042 0.000473 0.000000
0.000037 0.000477 0.000000
0.000041 0.000487 0.000000
0.000042 0.000492 0.000000
0.000041 0.000497 0.000000
0.000045 0.000498 0.000000
0.000365 0.000603 0.000000
0.000457 0.000797 0.000000
0.000469 0.000792 0.000000
0.000485 0.000789 0.000000
0.000492 0.000801 0.000000
0.000503 0.000803 0.000000
0.000501 0.000799 0.000000
0.000513 0.000804 0.000000
0.000524 0.000808 0.000000
0.000527 0.000811 0.000000
0.000523 0.000802 0.000000
0.000537 0.000805 0.000000
0.000542 0.000811 0.000000
0.000548 0.000808 0.000000
0.000545 0.000813 0.000000
0.000553 0.000815 0.000000
0.000561 0.000815 0.000000
0.000567 0.000813 0.000000
0.000573 0.000816 0.000000
0.000578 0.000815 0.000000
0.000045 0.000445 0.000000
0.000046 0.000450 0.000000
0.000045 0.000454 0.000000
0.000045 0.000461 0.000000
0.000045 0.000467 0.000000
0.000046 0.000473 0.000000
0.000046 0.000479 0.000000
0.000040 0.000484 0.000000
0.000052 0.000486 0.000000
0.000046 0.000483 0.000000
0.000048 0.000493 0.000000
0.000050 0.000498 0.000000
0.000365 0.000612 0.000000
0.000446 0.000797 0.000000
0.000477 0.000800 0.000000
0.000490 0.000796 0.000000
0.000492 0.000794 0.000000
0.000506 0.000797 0.000000
0.000511 0.000797 0.000000
0.000515 0.000800 0.000000
0.000522 0.000798 0.000000
0.000532 0.000802 0.000000
0.000532 0.000808 0.000000
0.000543 0.000806 0.000000
0.000535 0.000800 0.000000
0.000551 0.000804 0.000000
0.000556 0.000808 0.000000
0.000562 0.000810 0.000000
0.000565 0.000807 0.000000
0.000570 0.000811 0.000000
0.000574 0.000811 0.000000
0.000579 0.000810 0.000000
0.000049 0.000445 0.000000
0.000051 0.000450 0.000000
0.000048 0.000457 0.000000
0.000053 0.000459 0.000000
0.000049 0.000464 0.000000
0.000050 0.000472 0.000000
0.000051 0.000468 0.000000
0.000051 0.000477 0.000000
0.000047 0.000488 0.000000
0.000052 0.000491 0.000000
0.000058 0.000492 0.000000
0.000053 0.000498 0.000000
0.000377 0.000702 0.000000
0.000445 0.000790 0.000000
0.000458 0.000793 0.000000
0.000482 0.000793 0.000000
0.000496 0.000790 0.000000
0.000499 0.000793 0.000000
0.000504 0.000792 0.000000
0.000508 0.000791 0.000000
0.000522 0.000793 0.000000
0.000518 0.000796 0.000000
0.000528 0.000793 0.000000
0.000540 0.000798 0.000000
0.000541 0.000802 0.000000
0.000546 0.000802 0.000000
0.000553 0.000804 0.000000
0.000560 0.000799 0.000000
0.000559 0.000804 0.000000
0.000569 0.000805 0.000000
0.000575 0.000806 0.000000
0.000580 0.000805 0.000000
0.000054 0.000445 0.000000
0.000057 0.000450 0.000000
0.000054 0.000454 0.000000
0.000054 0.000462 0.000000
0.000057 0.000466 0.000000
0.000055 0.000473 0.000000
0.000057 0.000477 0.000000
0.000057 0.000480 0.000000
0.000052 0.000483 0.000000
0.000057 0.000486 0.000000
0.000056 0.000497 0.000000
0.000060 0.000496 0.000000
0.000387 0.000724 0.000000
0.000443 0.000797 0.000000
0.000450 0.000792 0.000000
[...]
POINT_DATA 9720
SCALARS density float 1
LOOKUP_TABLE default
4429.295865
4428.150350
4426.500558
4424.080889
4429.337555
4430.026473
4428.461893
4436.689784
4445.133034
4421.096655
4433.029894
4403.918829
4421.353117
4439.013271
4435.082211
4430.309960
4442.088498
4434.654964
4447.572720
4442.837566
4425.588360
4420.511317
4411.900519
4443.597952
4438.655163
4431.011655
4443.904616
4446.114630
4416.829942
4454.014419
4435.815348
4441.852136
4429.359213
4431.375421
4429.054401
4432.266691
4430.650086
4425.692436
4429.880037
4412.984049
4397.555211
4426.088225
4442.107905
4407.309600
4424.576908
4433.392110
4416.152946
4403.744793
4421.518819
4411.014473
4418.414596
4464.179624
4411.932057
4393.580319
4420.907421
4396.930758
4423.866556
4398.790360
4407.537684
4444.755001
4402.726193
4413.044670
4408.837814
4413.722642
4422.646902
4434.367545
4431.370606
4420.040531
4430.795254
4401.275120
4460.906886
4409.674850
4480.491210
4376.110369
4462.031796
4397.841490
4425.504842
4461.734106
4417.439354
4384.548212
4393.060055
4417.899406
4468.111719
4409.776633
4448.648574
4409.725276
4404.925627
4471.729315
4404.464526
4408.116601
4447.561572
4416.128654
4453.079128
4446.745928
4463.053916
4423.741956
4433.883503
4444.584326
4443.962328
4417.654300
4459.174773
4422.132689
4446.965083
4370.007505
4469.608293
4382.104675
4519.285873
4398.713884
4437.795726
4381.616730
4436.234301
4420.169752
4454.236323
4445.410934
4436.372127
4424.251868
4438.592173
4434.083240
4411.090926
4456.709114
4408.542154
4465.648849
4428.165827
4480.067430
4420.350014
4352.817503
4494.127769
4458.775963
4436.760385
4424.632345
4435.080043
4439.679558
4429.200384
4423.083634
4441.966031
4443.571496
4484.699965
4360.691179
4482.403860
4440.471223
4420.888885
4414.537065
4461.685356
4409.762428
4535.889941
4428.235575
4475.859762
4446.824795
4410.904373
4406.000208
4392.510888
4438.951253
4430.344526
4412.868963
4408.393355
4469.795546
4456.223887
4456.559434
4331.966378
4431.421092
4428.472911
4442.978388
4432.459490
4430.540465
4434.123794
4411.096425
4454.313085
4355.144602
4434.494331
4467.772055
4399.034842
4428.904666
4425.777034
4435.783006
4409.707397
4336.346106
4475.533697
4379.415691
4425.005937
4420.267153
4418.522767
4437.178935
4452.836432
4441.142238
4441.375359
4457.182440
4389.401070
4455.653007
4448.859031
4373.435186
4437.368285
4415.747924
4429.309411
4416.521161
4398.238408
4447.686601
4427.527662
4453.840751
4412.841120
4460.615153
4437.232226
4425.985778
4455.056875
4424.024112
4416.276608
4425.338561
4442.262251
4461.653142
4402.895013
4428.996494
4442.160839
4448.028827
4451.695695
4451.305735
4428.125727
4407.347212
4401.092701
4434.706035
4395.517540
4431.159574
4481.689440
4375.039407
4437.685139
4443.605575
4435.413823
4425.371965
4426.758988
4457.479623
4423.417032
4434.171790
4458.926103
4421.701513
4409.944202
4429.280279
4407.487944
4445.113064
4421.614923
4419.116374
4436.758388
4427.979190
4429.915162
4450.232262
4425.662188
4423.530932
4413.929331
4435.456588
4415.670419
4461.867517
4415.956029
4432.652794
4410.695636
4437.837670
4494.546175
4386.853345
4423.479817
4412.394877
4425.583968
4418.312662
4422.747785
4401.781684
4454.001020
4438.474226
4444.416135
4410.372828
4451.499358
4434.126169
4440.094964
4422.762740
4541.535754
4385.350757
4380.957373
4448.920715
4405.275432
4448.126862
4437.759902
4436.440106
4433.340210
4419.395814
4443.039178
4401.239715
4450.273781
4383.738160
4450.333809
4439.674251
4403.240392
4415.815173
4452.470850
4422.455030
4427.264694
4417.316427
4450.949229
4442.411031
4397.804652
4427.695379
4441.905304
4433.112635
4449.310202
4413.498637
4470.235001
4439.506337
4463.646383
4422.043676
4418.346412
4445.809692
4450.389708
4438.293066
4426.969912
4448.876793
4429.332689
4455.253932
4426.812460
4442.880956
4432.095289
4452.806884
4422.156782
4454.546775
4435.588032
4447.331456
4421.247841
4420.866053
4431.365223
4408.617535
4393.060579
4441.782728
4423.818745
4451.546223
4434.625339
4369.447545
4377.147898
4409.049794
4515.595292
4415.705059
4430.712983
4463.383782
4433.715450
4447.031655
4447.672706
4406.967318
4448.221868
4405.169875
4447.596400
4412.765706
4445.073411
4410.465886
4436.864752
4438.519186
4446.287524
4457.383858
4403.347075
4405.063976
4431.209254
4436.395361
4427.830190
4420.826268
4453.362279
4440.359090
4414.045419
4429.194315
4437.451800
4434.745144
4475.860713
4350.891966
4425.505426
4400.368416
4435.388587
4409.995666
4491.225706
4416.592197
4451.614884
4436.154141
4413.200328
4463.429400
4396.929766
4438.182376
4418.918386
4411.591357
4414.000089
4408.470149
4437.428840
4437.794324
4443.615161
4447.128942
4429.465976
4420.367308
4426.111210
4432.483315
4428.424632
4425.588691
4422.758224
4427.552280
4427.763324
4408.640219
4485.030511
4417.886899
4441.381826
4432.783836
4414.452559
4432.292851
4444.026886
4380.326817
4365.969170
4460.853609
4415.826779
4442.867956
4423.291456
4411.175106
4447.791655
4428.569123
4420.512236
4428.161047
4451.150891
4453.262615
4408.346519
4419.418214
4416.276188
4435.282532
4441.305889
4426.519247
4414.457480
4457.809463
4458.315966
4430.774241
4422.692498
4435.719607
4457.619436
4359.452022
4470.864162
4423.684067
4425.854028
4413.292776
4446.692826
4413.116362
4466.925400
4391.695349
4407.628445
4418.240392
4399.495662
4430.098535
4462.496678
4457.830882
4405.700029
4420.156844
4416.600454
4432.029057
4430.466791
4453.339956
4429.193967
4421.447925
4426.908609
4436.570315
4411.119090
4409.479023
4410.064766
4460.715376
4400.595755
4434.077385
4375.076780
4437.711682
4431.160658
4456.227093
4442.914824
4417.158093
4431.158164
4500.759481
4457.405448
4434.372921
4466.797538
4469.959216
4376.121179
4441.052000
4418.764485
4426.703107
4411.907216
4459.098864
4442.630981
4441.633656
4418.503701
4400.445747
4432.306873
4432.332692
4442.459225
4413.648717
4428.126783
4439.781597
4445.520901
4433.283452
4450.277400
4468.218441
4481.020000
4334.355767
4413.952683
4453.595890
4426.688064
4417.646346
4424.215830
4352.808504
4434.977228
4466.623710
4418.428353
4461.835814
4441.875248
4422.357776
4448.502579
4454.839537
4437.892890
4444.016889
4384.399513
4441.912086
4433.123797
4450.839979
4422.050658
4423.821928
4416.773933
4427.432568
4442.136987
4417.699903
4413.855619
4398.020804
4448.868415
4407.722302
4446.281156
4509.111163
4420.721101
4422.723222
4419.749392
4432.291697
4450.514014
4432.498799
4467.280619
4402.119056
4429.869398
4413.609559
4419.999165
4460.093664
4447.552053
4430.052205
4433.803782
4417.670336
4446.406500
4443.279494
4400.437106
4444.432951
4413.446247
4438.267291
4436.647238
4422.220975
4417.600234
4448.912922
4468.980297
4416.132573
4430.011344
4447.652969
4386.646505
4358.724215
4441.304894
4457.065242
4471.103702
4448.878138
4448.238260
4436.174707
4368.350782
4387.467213
4471.540420
4467.922390
4459.221787
4483.844228
4405.664652
4423.997703
4419.300884
4448.092630
4401.348005
4399.192202
4444.098565
4442.973826
4425.855478
4430.741947
4420.310446
4424.609135
4448.160856
4424.209831
4403.723242
4449.598605
4446.589704
4483.997192
4437.888677
4437.909495
4402.394538
4427.880562
4416.679941
4415.467411
4432.326315
4422.757631
4436.366672
4398.653563
4448.145482
4396.961573
4399.035614
4450.294453
4406.879220
4427.903917
4443.684888
4437.237307
4448.346060
4442.531366
4435.492387
4411.972395
4423.891452
4424.490024
4444.042246
4434.037974
4410.175821
4418.277353
4425.343217
4409.137205
4424.427164
4384.300019
4480.698046
4429.031411
4427.877303
4433.588664
4414.396821
4430.664631
4448.173170
4430.958503
4410.601777
4441.043389
4446.286463
4389.883072
4511.517107
4409.536499
4430.214861
4425.267089
4441.993926
4423.833163
4439.490421
4408.772768
4419.455393
4443.337083
4434.710530
4429.646761
4419.736076
4422.325178
4440.137412
4432.992439
4444.348135
4446.412806
4391.691445
4414.165122
4441.265408
4479.910738
4386.232537
4539.833191
4430.775987
4437.606511
4429.346842
4459.051567
4441.172121
4445.305566
4475.195775
4451.304848
4412.704626
4459.902381
4484.422708
4399.049939
4454.857395
4424.896111
4436.445022
4446.733099
4455.509074
4417.866111
4422.656389
4424.389026
4443.010578
4437.809951
4411.216084
4421.603950
4435.892652
4421.877359
4368.993436
4431.018359
4477.298532
4379.980411
4429.880067
4433.411481
4424.785674
4429.644483
4420.876852
4417.305847
4448.882215
4442.032244
4460.538410
4448.074225
4410.382605
4336.069317
4449.411567
4448.660353
4467.689097
4422.430944
4418.168306
4418.146727
4432.952514
4408.449485
4440.337070
4435.409693
4431.166881
4430.076477
4434.047483
4428.801429
4403.850254
4445.232256
4456.820719
4419.873003
4444.501622
4401.301972
4384.398264
4474.366103
4429.201854
4461.261437
4407.152352
4457.142615
4446.340026
4433.651354
4435.575977
4403.123088
4419.963659
4368.189598
4341.068011
4452.441799
4425.672881
4406.124314
4451.296382
4431.047279
4468.810841
4428.890975
4418.781825
4425.595786
4431.186018
4430.945547
4410.021599
4428.514059
4420.539510
4402.075228
4448.330404
4437.574625
4451.543929
4448.268814
4401.557103
4426.118641
4416.169173
4428.444690
4402.491538
4357.727078
4456.139817
4455.571998
4429.505423
4444.985099
4438.606549
4433.857727
4437.302396
4439.724817
4457.800355
4456.666494
4440.867706
4438.726797
4411.296202
4414.367509
4440.622186
4423.566040
4421.128510
4429.156941
4428.856725
4429.227012
4429.592171
4429.694635
4430.010901
4430.111202
4430.519549
4430.739086
4431.208583
4431.216637
4431.274323
4430.796400
4429.880081
4423.833071
4428.264895
4428.444569
4429.113824
4429.633606
4429.907449
4430.286610
4430.267548
4430.398410
4429.994201
4429.965937
4429.953823
4430.240180
4430.722180
4431.109293
4425.786683
4428.062788
4428.093096
4428.340787
4428.999443
4428.793860
4429.431616
4429.380798
4430.069207
4430.464287
4431.139486
4430.940927
4430.645806
4430.419358
4429.146092
4426.609005
4428.149577
4428.490966
4428.704476
4429.326779
4429.468327
4429.859830
4429.731794
4429.857080
4429.102499
4429.016615
4428.490514
4429.026841
4428.606477
4429.660427
4427.529015
4428.198898
4428.433713
4428.202329
4428.732606
4428.349694
4429.079051
4428.714817
4429.687511
4429.627127
4430.859012
4429.824609
4430.641113
4427.406884
4428.579999
4427.676027
4428.262100
4428.865007
4428.279961
4429.534848
4428.841615
4429.870240
4429.009793
4429.731319
4428.346725
4428.694187
4427.773558
4428.477600
4427.510480
4429.541427
4427.720830
4428.355835
4428.538592
4428.212363
4428.515385
4428.202923
4428.673583
4428.490219
4429.163772
4429.420709
4430.227805
4429.919576
4429.568731
4428.111441
4428.682105
4427.812939
4428.670517
4428.473039
4428.657880
4428.923477
4429.083102
4429.178954
4429.154171
4429.012043
4428.449885
4428.171967
4427.624963
4428.722613
4428.079183
4427.613688
4427.603308
4428.530358
4428.344331
4428.242805
4428.249827
4428.147090
4428.287310
4428.335693
4428.808657
4429.262375
4430.045950
4430.244933
4429.801190
4429.043557
4430.284594
4427.868777
4428.630967
4428.434188
4428.621662
4428.693184
4428.972590
4428.856995
4428.968338
4428.624410
4428.386488
4427.862837
4427.942976
4429.201011
4429.108559
4430.389105
4427.492288
4428.509002
4428.233403
4428.085112
4428.114096
4427.911486
4428.011266
4427.984056
4428.546815
4428.905296
4429.946991
4429.964790
4430.314464
4429.917824
4430.024051
4427.581364
4428.573259
4428.326391
4428.377769
4428.646584
4428.530573
4428.741544
4428.482881
4428.521140
4427.821650
4427.657765
4427.548879
4428.338245
4429.606212
4430.316348
4427.574762
4428.428842
4428.115420
4428.134812
4427.702032
4427.940155
4427.516684
4427.966456
4427.847951
4428.858547
4428.933494
4429.587632
4429.277643
4429.008825
4430.288984
4419.819731
4413.602682
4416.878548
4440.575076
4420.830202
4452.253820
4432.333322
4436.480502
4400.007807
4464.526130
4417.771349
4410.492184
4409.644995
4440.107104
4431.598953
4417.598517
4427.545485
4428.499698
4428.212213
4428.183110
4428.444987
4428.352588
4428.365252
4428.299498
4427.996333
4427.200882
4427.084381
4426.503580
4426.982780
4427.464985
4428.594250
4431.296491
4430.055955
4422.264086
4428.811025
4417.408717
4443.203589
4435.969665
4347.767874
4424.950602
4385.561717
4413.699270
4460.802228
4409.343296
4465.128173
4392.060505
4402.332973
4427.147788
4428.181150
4428.140108
4427.712306
4427.878588
4427.145002
4427.801955
4426.839656
4427.890753
4427.719364
4428.663886
4428.114277
4428.372439
4426.581960
4428.487780
4431.854804
4450.587226
4421.338111
4438.043876
4406.241816
4445.103885
4419.982923
4390.354981
4437.428622
4449.783040
4437.092265
4428.171160
4405.844362
4426.083275
4395.735167
4446.272501
4427.363542
4428.141319
4428.393448
4427.639151
4428.475646
4427.822807
4428.207434
4427.761203
4427.765216
4426.325097
4426.800183
4425.126314
4426.415532
4424.004784
4426.879590
4417.756561
4409.948670
4395.513500
4385.320973
4409.289725
4443.741909
4436.156015
4451.040389
4421.023645
4412.364872
4438.008584
4437.754910
4387.314322
4388.670326
4421.898770
4440.053591
4426.928016
4428.180318
4427.921877
4427.543210
4427.671616
4426.916247
4427.491628
4426.671124
4427.345086
4427.606502
4427.757959
4427.277595
4427.075415
4424.224530
4423.583971
4434.170708
4430.762070
4429.134903
4468.225951
4454.030622
4433.586379
4435.460778
4435.937836
4409.638404
4455.097579
4445.865848
4457.610764
4400.593885
4412.620727
4433.924740
4413.784919
4426.996980
4428.331658
4427.785910
4428.054569
4427.696529
4428.040016
4427.775876
4427.712798
4427.500161
4425.914178
4426.187191
4425.033330
4424.850793
4424.775255
4423.082224
4425.735716
4411.522130
4438.867877
4438.348456
4485.231050
4386.506489
4434.132061
4428.733256
4445.577517
4401.254695
4388.083026
4451.384559
4415.908706
4445.464349
4448.927596
4424.550442
4427.079355
4428.038859
4428.037885
4427.262250
4427.644963
4427.096680
4427.104436
4427.086822
4426.650539
4427.984159
4426.934773
4427.449354
4426.298889
4425.185403
4425.528353
4447.414989
4438.704535
4449.669529
4390.792253
4343.724770
4436.106937
4425.614494
4427.269042
4446.825033
4435.013606
4415.106018
4463.951016
4460.717308
4412.927646
4479.477492
4391.233330
4426.928267
4428.240289
4427.785143
4427.964005
4427.873303
4427.721891
4428.067160
4427.356571
4427.585411
4425.690302
4426.273573
4425.064876
4425.519166
4425.571875
4425.703630
4436.169263
4417.731098
4446.407549
4399.549540
4404.329296
4473.934489
4424.895317
4421.277904
4430.799069
4401.645306
4460.405762
4375.410139
4441.026462
4456.592815
4439.847730
4440.212664
4426.943276
4428.081369
4427.911640
4427.423917
4427.590362
4427.182687
4427.359241
4426.597201
4427.237801
4427.186138
4427.792042
4427.153314
4427.536651
4426.374781
4426.556606
4425.252615
4443.510482
4404.971362
4429.993995
4445.403415
4430.252723
4423.600951
4418.129546
4389.868514
4461.878652
4404.213221
4371.614972
4436.243432
4468.270979
4422.533530
4398.677839
4426.985040
4428.063175
4428.141181
4427.512089
4428.315368
4427.433139
4427.862453
4427.596448
4426.891779
4426.042819
4426.105240
4425.013243
4426.462322
4425.210926
4428.439497
4428.840215
4438.955591
4431.053102
4441.548030
4375.297935
4413.974843
4435.597113
4424.621018
4411.386958
4441.519249
4392.752633
4427.027159
4335.920000
4439.560040
4484.539063
4430.282397
4427.081263
4428.205213
4427.771810
4427.866819
4427.271270
4427.170800
4427.325283
4426.047430
4427.083159
4427.054664
4427.316069
4427.638576
4426.364405
4425.251693
4424.871942
4434.490459
4439.254946
4438.915381
4429.702215
4436.828386
4427.387559
4457.097509
4493.530885
4385.091201
4420.151457
4445.677417
4445.496828
4446.130640
4461.197915
4411.395848
4386.098892
4427.299733
4428.116503
4428.164410
4427.469707
4428.023689
4427.348337
4427.427579
4427.427266
4427.055683
4425.737554
4426.710306
4424.454847
4426.025509
4425.181726
4423.182307
4449.683224
4428.172657
4457.644741
4443.063403
4408.219967
4421.475639
4434.112718
4393.344344
4484.220120
4409.760457
4429.695816
4382.862862
4420.710622
4389.236378
4389.098362
4457.824608
4427.326952
4428.034639
4428.277422
4427.135183
4427.879501
4426.494022
4427.653348
4426.331635
4427.088608
4427.757732
4427.063236
4427.674326
4425.933506
4425.354952
4427.477114
4425.889575
4415.523511
4440.783337
4407.034197
4392.143831
4455.713845
4418.608841
4428.811867
4400.569251
4409.978569
4416.295438
4425.565597
4437.744773
4405.920804
4479.384922
4471.154685
4427.577251
4428.470817
4427.731170
4428.310118
4427.387255
4428.141416
4427.712767
4427.595392
4427.811968
4425.382351
4426.451471
4424.426201
4426.241854
4424.305584
4426.705294
4441.855736
4428.432154
4429.596760
4440.986630
4437.097649
4420.302560
4454.127615
4428.325294
4389.026172
4444.689878
4447.248802
4449.985384
4413.396881
4417.690695
4429.659140
4452.532554
4427.375951
4428.223379
4428.357217
4427.286089
4428.175920
4427.249048
4427.462645
4427.065779
4426.531148
4427.248735
4427.160733
4426.658222
4426.356042
4425.885884
4424.675980
4422.727845
4436.500401
4424.306666
4432.613175
4445.186334
4447.580650
4505.287010
4446.494428
4435.641245
4439.746944
4385.879253
4397.188927
4422.198379
4426.988167
4410.395799
4414.954880
4427.822759
4428.233905
4428.453439
4427.839021
4428.551636
4427.488737
4428.554559
4426.990067
4428.033166
4425.954422
4426.104577
4425.764930
4425.341208
4425.613290
4426.292311
4415.076921
4417.333856
4446.464601
4407.145581
4369.709102
4433.811216
4674.047399
4469.171045
4444.544848
4445.907424
4451.524906
4433.583013
4448.582681
4405.214045
4459.945647
4421.289720
4427.870304
4428.536494
4428.211988
4428.411885
4427.624988
4428.253159
4427.507530
4427.767078
4427.303291
4427.608296
4428.076837
4427.039514
4427.303795
4425.505616
4426.114111
4420.384030
4426.128464
4409.403622
4484.951263
4389.988586
4426.953836
4502.755276
4440.530183
4460.467194
4460.780544
4468.926499
4424.195559
4427.849267
4431.188303
4384.078090
4419.705572
4427.928399
4428.402426
4428.625852
4427.535104
4428.772586
4427.398880
4428.279703
4427.333316
4427.219015
4425.774974
4426.135896
4424.086656
4426.619050
4424.892111
4425.505375
4442.975880
4426.306748
4433.955462
4428.606013
4373.675994
4406.955980
4482.825019
4465.944933
4480.219471
4415.584418
4395.238323
4430.262424
4464.848978
4459.316140
4450.492653
4427.448524
4428.151566
4428.096615
4428.899792
4427.395487
4428.265947
4426.321176
4427.987035
4425.273666
4426.763911
4426.328000
4427.027518
4427.853289
4425.904769
4423.824552
4427.637846
4437.784388
4380.991021
4453.595547
4451.670185
4383.109924
4433.787369
4477.077158
4450.762459
4434.799736
4427.468028
4431.393424
4415.307830
4413.370520
4415.751501
4428.778418
4424.219729
4428.300190
4428.611650
4428.332629
4427.973668
4427.604358
4427.842269
4427.683184
4427.858601
4428.006136
4427.141271
4427.715623
4424.590960
4426.736626
4423.517851
4424.006454
4429.039357
4437.701312
4416.042168
4385.819465
4424.050643
4450.720045
4734.891870
4442.541317
4461.504303
4489.462760
4440.666164
4396.930734
4404.977542
4437.392404
4359.299884
4425.580115
4428.334675
4428.282964
4428.852092
4427.290537
4428.920026
4427.430432
4428.800320
4427.634812
4428.619102
4428.164547
4428.496139
4426.691560
4424.999052
4425.488541
4422.206533
4433.382360
4446.710427
4455.044228
4428.114082
4447.225948
4445.121566
4487.110734
4460.757788
4395.051069
4452.240623
4455.935649
4401.280745
4452.709211
4416.744111
4505.838889
4424.642869
4428.286004
4428.384559
4429.018892
4428.122764
4428.940841
4427.825665
4428.937774
4427.306360
4428.788724
4425.569694
4425.400405
4424.139555
4425.325481
4423.035754
4426.044432
4428.615838
4419.026000
4470.612439
4408.418148
4440.421773
4510.180122
4499.710726
4506.411949
4474.479944
4444.269353
4464.443314
4449.417179
4438.069205
4424.012293
4373.729466
4437.993149
4428.718679
4429.071663
4428.453710
4428.866223
4427.956833
4428.567944
4427.216453
4427.707657
4426.599251
4426.510194
4426.061473
4423.822504
4425.453462
4423.742349
4425.745100
4430.252154
4416.325609
4442.851484
4446.508411
4480.986225
4404.069806
4537.199100
4471.323823
4442.739010
4437.611169
4427.362155
4455.817859
4430.711553
4398.050562
4394.039750
4408.287251