# vtk DataFile Version 2.0
mfree iwf
ASCII

DATASET UNSTRUCTURED_GRID
POINTS 9189 float
0.000000 0.000445 0.000000
0.000000 0.000450 0.000000
0.000000 0.000455 0.000000
0.000000 0.000460 0.000000
0.000000 0.000465 0.000000
0.000000 0.000470 0.000000
0.000000 0.000475 0.000000
0.000000 0.000480 0.000000
0.000001 0.000485 0.000000
0.000001 0.000490 0.000000
0.000000 0.000496 0.000000
0.000002 0.000500 0.000000
0.000252 0.000658 0.000000
0.000254 0.000667 0.000000
0.000273 0.000709 0.000000
0.000277 0.000714 0.000000
0.000277 0.000714 0.000000
0.000279 0.000719 0.000000
0.000283 0.000726 0.000000
0.000283 0.000724 0.000000
0.000288 0.000735 0.000000
0.000303 0.000758 0.000000
0.000308 0.000763 0.000000
0.000311 0.000766 0.000000
0.000315 0.000768 0.000000
0.000319 0.000772 0.000000
0.000323 0.000774 0.000000
0.000328 0.000778 0.000000
0.000330 0.000780 0.000000
0.000336 0.000784 0.000000
0.000341 0.000788 0.000000
0.000362 0.000805 0.000000
0.000005 0.000445 0.000000
0.000005 0.000450 0.000000
0.000005 0.000455 0.000000
0.000005 0.000460 0.000000
0.000005 0.000465 0.000000
0.000005 0.000470 0.000000
0.000005 0.000475 0.000000
0.000005 0.000480 0.000000
0.000005 0.000485 0.000000
0.000006 0.000490 0.000000
0.000004 0.000496 0.000000
0.000006 0.000499 0.000000
0.000272 0.000704 0.000000
0.000282 0.000711 0.000000
0.000294 0.000740 0.000000
0.000297 0.000746 0.000000
0.000300 0.000750 0.000000
0.000303 0.000753 0.000000
0.000305 0.000755 0.000000
0.000309 0.000757 0.000000
0.000314 0.000761 0.000000
0.000318 0.000765 0.000000
0.000324 0.000769 0.000000
0.000328 0.000773 0.000000
0.000335 0.000776 0.000000
0.000340 0.000782 0.000000
0.000343 0.000785 0.000000
0.000348 0.000787 0.000000
0.000353 0.000795 0.000000
0.000356 0.000798 0.000000
0.000352 0.000796 0.000000
0.000360 0.000802 0.000000
0.000010 0.000445 0.000000
0.000011 0.000450 0.000000
0.000010 0.000455 0.000000
0.000011 0.000460 0.000000
0.000010 0.000466 0.000000
0.000010 0.000469 0.000000
0.000011 0.000475 0.000000
0.000011 0.000480 0.000000
0.000010 0.000486 0.000000
0.000012 0.000490 0.000000
0.000009 0.000497 0.000000
0.000011 0.000498 0.000000
0.000276 0.000704 0.000000
0.000285 0.000712 0.000000
0.000290 0.000727 0.000000
0.000292 0.000733 0.000000
0.000294 0.000737 0.000000
0.000297 0.000742 0.000000
0.000301 0.000737 0.000000
0.000306 0.000746 0.000000
0.000307 0.000750 0.000000
0.000313 0.000756 0.000000
0.000317 0.000758 0.000000
0.000321 0.000764 0.000000
0.000326 0.000763 0.000000
0.000332 0.000767 0.000000
0.000333 0.000773 0.000000
0.000339 0.000778 0.000000
0.000351 0.000788 0.000000
0.000352 0.000791 0.000000
0.000359 0.000797 0.000000
0.000365 0.000798 0.000000
0.000015 0.000445 0.000000
0.000016 0.000450 0.000000
0.000015 0.000456 0.000000
0.000016 0.000459 0.000000
0.000015 0.000465 0.000000
0.000016 0.000471 0.000000
0.000014 0.000475 0.000000
0.000016 0.000480 0.000000
0.000015 0.000485 0.000000
0.000017 0.000489 0.000000
0.000015 0.000495 0.000000
0.000017 0.000498 0.000000
0.000025 0.000500 0.000000
0.000286 0.000717 0.000000
0.000292 0.000729 0.000000
0.000296 0.000728 0.000000
0.000303 0.000741 0.000000
0.000300 0.000746 0.000000
0.000312 0.000746 0.000000
0.000313 0.000750 0.000000
0.000321 0.000751 0.000000
0.000321 0.000759 0.000000
0.000332 0.000761 0.000000
0.000328 0.000767 0.000000
0.000337 0.000771 0.000000
0.000341 0.000774 0.000000
0.000345 0.000777 0.000000
0.000347 0.000780 0.000000
0.000352 0.000783 0.000000
0.000358 0.000788 0.000000
0.000360 0.000792 0.000000
0.000367 0.000795 0.000000
0.000020 0.000445 0.000000
0.000021 0.000450 0.000000
0.000020 0.000456 0.000000
0.000021 0.000461 0.000000
0.000019 0.000466 0.000000
0.000022 0.000467 0.000000
0.000020 0.000475 0.000000
0.000022 0.000479 0.000000
0.000019 0.000486 0.000000
0.000022 0.000490 0.000000
0.000021 0.000497 0.000000
0.000022 0.000499 0.000000
0.000039 0.000500 0.000000
0.000292 0.000714 0.000000
0.000293 0.000720 0.000000
0.000297 0.000724 0.000000
0.000297 0.000734 0.000000
0.000305 0.000736 0.000000
0.000309 0.000742 0.000000
0.000317 0.000752 0.000000
0.000317 0.000745 0.000000
0.000324 0.000755 0.000000
0.000331 0.000753 0.000000
0.000339 0.000759 0.000000
0.000340 0.000765 0.000000
0.000343 0.000769 0.000000
0.000348 0.000772 0.000000
0.000356 0.000778 0.000000
0.000356 0.000783 0.000000
0.000364 0.000786 0.000000
0.000364 0.000791 0.000000
0.000370 0.000792 0.000000
0.000025 0.000445 0.000000
0.000026 0.000450 0.000000
0.000026 0.000455 0.000000
0.000025 0.000458 0.000000
0.000025 0.000466 0.000000
0.000026 0.000472 0.000000
0.000023 0.000476 0.000000
0.000027 0.000480 0.000000
0.000024 0.000485 0.000000
0.000026 0.000489 0.000000
0.000027 0.000492 0.000000
0.000027 0.000500 0.000000
0.000261 0.000684 0.000000
0.000289 0.000718 0.000000
0.000289 0.000722 0.000000
0.000301 0.000731 0.000000
0.000306 0.000730 0.000000
0.000308 0.000738 0.000000
0.000319 0.000738 0.000000
0.000314 0.000739 0.000000
0.000321 0.000747 0.000000
0.000326 0.000751 0.000000
0.000327 0.000758 0.000000
0.000333 0.000757 0.000000
0.000336 0.000765 0.000000
0.000347 0.000768 0.000000
0.000351 0.000777 0.000000
0.000353 0.000771 0.000000
0.000361 0.000783 0.000000
0.000361 0.000778 0.000000
0.000368 0.000786 0.000000
0.000373 0.000788 0.000000
0.000030 0.000445 0.000000
0.000031 0.000450 0.000000
0.000029 0.000458 0.000000
0.000033 0.000461 0.000000
0.000029 0.000464 0.000000
0.000031 0.000469 0.000000
0.000031 0.000473 0.000000
0.000031 0.000477 0.000000
0.000031 0.000485 0.000000
0.000031 0.000492 0.000000
0.000033 0.000497 0.000000
0.000031 0.000499 0.000000
0.000049 0.000500 0.000000
0.000287 0.000707 0.000000
0.000301 0.000719 0.000000
0.000302 0.000725 0.000000
0.000306 0.000726 0.000000
0.000311 0.000733 0.000000
0.000320 0.000741 0.000000
0.000326 0.000744 0.000000
0.000326 0.000741 0.000000
0.000334 0.000749 0.000000
0.000337 0.000755 0.000000
0.000343 0.000761 0.000000
0.000348 0.000759 0.000000
0.000348 0.000765 0.000000
0.000354 0.000766 0.000000
0.000357 0.000773 0.000000
0.000366 0.000776 0.000000
0.000366 0.000780 0.000000
0.000371 0.000783 0.000000
0.000376 0.000785 0.000000
0.000035 0.000445 0.000000
0.000035 0.000450 0.000000
0.000038 0.000454 0.000000
0.000034 0.000456 0.000000
0.000035 0.000465 0.000000
0.000037 0.000471 0.000000
0.000033 0.000479 0.000000
0.000041 0.000479 0.000000
0.000035 0.000484 0.000000
0.000035 0.000488 0.000000
0.000038 0.000491 0.000000
0.000036 0.000498 0.000000
0.000252 0.000645 0.000000
0.000260 0.000682 0.000000
0.000298 0.000712 0.000000
0.000306 0.000721 0.000000
0.000314 0.000729 0.000000
0.000316 0.000726 0.000000
0.000316 0.000734 0.000000
0.000323 0.000735 0.000000
0.000329 0.000747 0.000000
0.000332 0.000742 0.000000
0.000340 0.000751 0.000000
0.000344 0.000753 0.000000
0.000344 0.000757 0.000000
0.000358 0.000762 0.000000
0.000359 0.000769 0.000000
0.000363 0.000768 0.000000
0.000364 0.000773 0.000000
0.000370 0.000775 0.000000
0.000374 0.000779 0.000000
0.000379 0.000781 0.000000
0.000040 0.000445 0.000000
0.000040 0.000450 0.000000
0.000038 0.000460 0.000000
0.000042 0.000457 0.000000
0.000040 0.000465 0.000000
0.000040 0.000470 0.000000
0.000043 0.000475 0.000000
0.000037 0.000476 0.000000
0.000042 0.000487 0.000000
0.000042 0.000492 0.000000
0.000042 0.000497 0.000000
0.000045 0.000498 0.000000
0.000251 0.000543 0.000000
0.000281 0.000706 0.000000
0.000293 0.000709 0.000000
0.000309 0.000712 0.000000
0.000311 0.000725 0.000000
0.000318 0.000730 0.000000
0.000324 0.000731 0.000000
0.000328 0.000736 0.000000
0.000336 0.000739 0.000000
0.000337 0.000747 0.000000
0.000340 0.000744 0.000000
0.000348 0.000751 0.000000
0.000351 0.000756 0.000000
0.000357 0.000758 0.000000
0.000353 0.000761 0.000000
0.000362 0.000764 0.000000
0.000368 0.000768 0.000000
0.000373 0.000771 0.000000
0.000377 0.000775 0.000000
0.000382 0.000777 0.000000
0.000045 0.000445 0.000000
0.000046 0.000450 0.000000
0.000045 0.000455 0.000000
0.000046 0.000461 0.000000
0.000045 0.000465 0.000000
0.000046 0.000470 0.000000
0.000046 0.000479 0.000000
0.000040 0.000483 0.000000
0.000051 0.000485 0.000000
0.000046 0.000483 0.000000
0.000048 0.000493 0.000000
0.000051 0.000498 0.000000
0.000251 0.000550 0.000000
0.000271 0.000702 0.000000
0.000297 0.000718 0.000000
0.000311 0.000719 0.000000
0.000314 0.000719 0.000000
0.000323 0.000726 0.000000
0.000330 0.000730 0.000000
0.000331 0.000735 0.000000
0.000337 0.000739 0.000000
0.000345 0.000742 0.000000
0.000345 0.000747 0.000000
0.000354 0.000753 0.000000
0.000350 0.000746 0.000000
0.000361 0.000756 0.000000
0.000365 0.000760 0.000000
0.000368 0.000763 0.000000
0.000373 0.000765 0.000000
0.000376 0.000768 0.000000
0.000380 0.000771 0.000000
0.000385 0.000773 0.000000
0.000050 0.000445 0.000000
0.000051 0.000450 0.000000
0.000050 0.000455 0.000000
0.000051 0.000460 0.000000
0.000050 0.000465 0.000000
0.000051 0.000473 0.000000
0.000050 0.000471 0.000000
0.000050 0.000478 0.000000
0.000047 0.000488 0.000000
0.000053 0.000491 0.000000
0.000058 0.000492 0.000000
0.000053 0.000498 0.000000
0.000251 0.000589 0.000000
0.000274 0.000696 0.000000
0.000284 0.000703 0.000000
0.000306 0.000715 0.000000
0.000319 0.000718 0.000000
0.000320 0.000722 0.000000
0.000329 0.000722 0.000000
0.000326 0.000727 0.000000
0.000341 0.000732 0.000000
0.000337 0.000733 0.000000
0.000347 0.000740 0.000000
0.000355 0.000743 0.000000
0.000354 0.000748 0.000000
0.000359 0.000751 0.000000
0.000365 0.000754 0.000000
0.000369 0.000756 0.000000
0.000373 0.000760 0.000000
0.000378 0.000764 0.000000
0.000383 0.000767 0.000000
0.000388 0.000769 0.000000
0.000055 0.000445 0.000000
0.000056 0.000450 0.000000
0.000055 0.000455 0.000000
0.000056 0.000461 0.000000
0.000055 0.000464 0.000000
0.000056 0.000469 0.000000
0.000056 0.000477 0.000000
0.000058 0.000482 0.000000
0.000054 0.000482 0.000000
0.000056 0.000487 0.000000
0.000056 0.000497 0.000000
0.000060 0.000497 0.000000
0.000251 0.000609 0.000000
0.000268 0.000699 0.000000
0.000278 0.000701 0.000000
[...]
POINT_DATA 9189
SCALARS density float 1
LOOKUP_TABLE default
4429.243904
4429.474761
4427.337239
4425.396746
4422.409329
4429.438577
4444.599075
4434.373546
4440.290247
4422.770647
4432.714110
4397.949928
4431.423976
4440.766488
4450.612087
4427.846531
4439.028924
4435.767724
4447.296976
4446.242047
4435.805225
4428.324762
4406.486802
4446.299402
4426.046032
4419.367355
4445.888703
4432.619685
4419.930137
4449.368772
4441.811408
4449.373405
4429.746627
4426.748771
4425.483175
4433.667557
4439.817872
4412.465673
4407.385986
4415.820699
4414.807362
4419.234983
4448.158318
4400.066351
4417.368186
4446.982035
4404.938432
4426.539225
4412.963767
4409.976777
4430.093705
4451.194439
4421.602628
4436.017256
4432.293350
4399.324886
4437.726293
4396.243334
4392.105508
4411.736897
4408.637025
4416.353956
4412.502759
4422.081979
4422.826724
4433.117582
4439.379614
4412.186097
4434.652427
4435.075278
4463.334632
4404.974861
4474.467281
4366.213151
4473.463403
4404.787366
4378.226022
4463.284019
4430.704426
4393.378195
4419.772667
4421.469262
4430.591176
4405.528513
4439.920007
4412.304312
4409.290031
4420.644914
4399.573035
4416.960749
4449.087904
4394.997115
4441.225520
4425.087271
4447.770942
4406.804854
4432.078528
4447.354175
4447.817535
4442.613182
4434.113538
4379.165058
4456.366531
4366.525856
4475.264821
4386.578435
4516.354751
4400.723969
4436.001041
4367.645552
4435.552544
4449.897337
4399.378006
4467.079227
4446.216512
4418.255364
4435.426894
4431.259347
4430.384774
4448.601570
4415.700462
4445.610523
4463.863121
4490.332400
4450.421899
4377.350448
4517.996772
4450.643984
4435.592428
4417.650787
4431.990727
4405.690834
4463.284328
4446.571396
4450.498239
4446.972050
4463.519236
4370.500145
4467.451446
4437.993578
4420.441719
4392.585747
4462.396097
4378.566456
4517.112115
4441.826573
4424.854400
4453.617952
4419.009743
4422.456223
4417.866486
4428.646332
4424.157908
4422.009382
4381.834331
4462.588439
4439.272088
4438.473407
4325.556532
4449.557349
4427.584852
4431.453137
4429.928299
4442.313485
4445.067750
4389.113217
4461.550766
4375.104442
4429.491260
4463.122494
4420.578972
4425.594271
4431.726008
4466.731205
4386.412260
4347.928786
4464.615616
4443.114306
4445.665582
4426.487732
4407.578550
4439.389777
4450.484535
4440.534541
4456.942562
4441.259326
4364.965803
4480.476398
4459.168500
4383.749903
4446.644013
4417.837650
4437.700288
4421.885253
4419.623771
4446.329584
4415.684537
4450.200110
4435.257401
4456.124135
4438.078092
4387.832030
4459.986731
4423.167939
4423.533151
4427.125523
4447.239146
4479.774247
4429.271488
4386.826347
4434.539620
4462.041465
4429.954851
4452.150406
4411.156718
4413.111004
4420.574050
4433.000065
4388.930402
4445.087437
4472.243449
4404.666205
4407.293395
4439.176717
4437.858438
4422.096110
4429.661398
4414.862464
4421.014543
4415.751046
4439.715388
4454.073290
4432.771262
4438.709358
4421.854503
4446.122812
4437.140827
4426.275913
4421.622488
4378.959353
4458.822741
4428.440801
4434.751931
4416.553470
4432.491051
4380.835490
4414.600466
4440.878571
4445.901851
4427.650792
4423.509589
4457.283360
4421.322109
4450.857743
4409.222389
4426.942130
4422.479330
4433.254498
4436.898845
4392.138770
4433.575380
4436.794007
4437.067675
4415.880062
4442.868201
4432.407171
4432.959935
4422.443779
4661.725181
4358.754822
4448.418535
4444.665574
4403.015767
4426.683112
4435.606431
4441.437933
4463.448225
4447.070514
4412.317528
4431.154194
4417.890828
4424.980934
4456.485257
4452.099498
4383.624861
4424.979997
4416.089134
4437.496440
4432.653079
4412.379203
4430.990076
4426.050775
4444.915223
4403.381683
4438.168487
4417.428092
4451.481188
4415.556165
4466.428478
4437.495060
4545.498149
4411.580736
4439.135809
4464.637327
4440.273339
4439.739181
4412.169198
4434.547222
4444.684152
4445.658723
4430.669393
4425.865421
4404.320409
4418.338948
4412.400564
4430.627874
4449.573650
4456.810847
4423.392922
4415.697952
4436.695922
4422.688140
4440.514348
4436.239817
4396.759010
4468.342409
4450.700323
4370.958430
4386.507477
4420.471219
4536.580547
4409.774414
4469.230918
4480.722221
4450.961657
4450.020701
4431.971139
4432.770952
4435.943394
4441.528640
4446.211899
4418.880667
4452.735184
4429.965279
4450.443639
4443.859179
4457.096599
4453.284984
4438.573326
4403.555873
4431.605237
4430.146972
4427.106208
4433.175687
4406.854752
4427.376469
4449.748965
4410.213351
4413.490917
4455.778185
4490.102387
4357.132414
4417.545382
4387.300994
4505.155947
4412.936261
4517.937819
4431.977413
4455.552449
4420.597082
4407.911493
4445.015600
4417.415232
4455.411204
4446.214112
4419.259031
4420.857626
4403.215069
4426.808826
4420.573529
4452.470128
4432.293642
4431.690995
4417.391054
4427.011572
4417.281528
4434.584321
4412.781566
4410.911307
4450.523197
4447.614397
4386.168647
4463.253246
4419.167198
4445.338173
4436.388929
4409.996583
4462.195991
4445.168426
4403.910239
4384.079852
4430.715069
4439.476945
4449.954346
4415.442501
4465.911614
4418.130955
4458.747882
4426.373126
4444.566812
4444.141341
4453.164366
4417.167223
4422.656818
4422.105523
4429.777250
4432.564787
4413.212566
4421.925407
4436.097777
4438.596425
4407.010280
4437.113978
4424.999623
4448.167530
4361.308928
4442.121159
4433.164474
4554.562941
4424.050473
4443.212230
4387.105512
4438.152219
4424.054390
4428.542140
4451.452020
4407.607991
4423.544468
4424.394663
4446.521284
4392.653197
4440.672135
4398.056443
4442.525672
4429.613498
4436.444958
4425.896622
4425.427492
4429.455153
4432.446628
4431.707681
4395.165867
4437.867983
4442.083638
4417.873514
4442.999354
4391.344930
4439.485218
4437.198900
4455.730776
4657.190578
4415.894154
4414.578388
4467.508917
4446.954193
4411.239330
4452.176545
4453.967204
4400.474999
4429.573467
4412.655610
4442.836911
4409.645830
4451.292310
4422.146099
4441.484455
4422.299581
4424.397277
4424.570928
4425.818735
4438.357237
4415.973495
4428.713274
4447.649686
4419.949009
4396.728539
4437.490442
4454.580338
4470.841159
4351.635278
4412.453104
4457.713080
4432.513914
4427.765741
4420.065038
4350.061256
4433.219059
4489.554846
4443.259994
4429.077608
4464.104149
4465.736947
4449.679072
4423.983505
4472.919216
4455.811244
4445.223687
4421.043489
4420.938903
4433.259239
4422.826221
4426.253956
4428.445911
4414.008064
4429.459164
4400.189446
4438.801812
4432.765082
4435.916497
4409.971037
4422.888484
4505.455684
4407.007329
4427.729027
4420.760297
4516.279315
4477.569733
4423.023603
4446.768512
4423.900739
4455.458732
4419.037539
4414.439741
4460.476544
4401.148776
4438.638021
4427.654831
4437.630050
4417.396861
4440.093372
4437.804292
4436.564900
4424.706241
4427.220531
4444.887815
4417.726712
4430.736122
4447.781370
4440.542482
4396.091419
4421.566487
4447.903902
4383.751234
4404.821958
4443.481277
4449.243084
4503.402774
4527.253314
4484.131740
4439.218789
4434.719670
4382.363968
4471.335129
4449.829041
4448.637527
4480.371381
4457.364699
4409.990767
4426.047615
4456.862575
4423.833123
4424.625173
4412.563486
4426.980590
4430.643547
4427.599899
4414.564334
4422.713172
4448.225865
4402.471278
4418.174690
4436.985489
4449.738161
4462.746844
4430.068465
4435.762653
4390.846766
4429.579866
4411.817070
4420.650412
4426.721667
4388.161717
4426.878132
4401.495755
4464.748919
4407.659136
4407.907240
4412.860272
4435.291738
4414.515972
4469.811049
4402.205417
4456.630740
4428.223809
4451.970204
4429.906400
4421.259862
4425.253922
4444.086980
4428.755774
4422.003336
4453.582881
4427.673024
4433.574521
4440.011071
4408.514362
4461.254611
4453.747662
4434.327354
4431.025205
4404.471924
4409.759748
4492.625371
4404.331190
4423.084345
4445.394514
4430.401967
4386.100886
4491.552254
4419.117743
4425.505658
4417.654048
4451.694838
4416.993318
4433.085613
4415.480738
4415.259614
4429.069585
4427.076254
4426.953244
4414.019789
4425.742667
4432.087760
4406.341431
4444.452663
4414.683482
4396.286088
4390.975163
4451.000281
4479.041840
4379.831898
4559.878875
4435.869126
4439.626314
4456.597792
4460.477036
4410.483123
4439.039994
4394.564812
4474.611481
4425.585664
4480.949619
4447.798954
4416.914273
4431.009175
4462.382305
4404.091400
4480.832177
4433.134469
4411.619248
4436.264763
4421.626321
4450.880070
4446.774345
4412.413007
4422.998136
4428.239992
4412.144796
4447.155743
4418.063366
4463.088618
4381.149943
4430.141469
4426.716229
4472.420036
4399.495910
4409.761405
4385.349513
4421.754853
4475.349845
4507.156536
4456.410255
4412.372846
4366.452053
4442.864141
4477.035485
4447.627826
4411.826857
4438.979449
4429.176693
4422.189907
4427.310467
4426.983439
4434.130144
4420.120216
4423.370577
4432.136439
4434.803555
4439.264217
4407.890987
4430.608396
4407.011603
4451.380643
4376.530511
4361.325154
4492.731455
4423.248059
4456.404169
4452.254798
4465.003361
4451.634982
4444.277641
4423.014060
4426.312637
4376.416510
4394.621511
4383.886729
4449.996582
4434.783616
4411.955767
4459.659752
4430.904714
4471.076821
4423.891184
4407.955193
4427.091794
4444.594451
4436.047050
4409.781062
4412.847838
4402.830898
4430.450263
4436.046188
4438.033200
4458.744278
4456.580856
4424.047694
4427.019462
4407.627697
4443.388679
4362.953434
4365.252460
4488.716221
4464.008732
4432.701238
4406.210481
4450.328914
4437.619709
4409.560659
4417.755656
4453.768772
4458.031796
4430.004054
4434.096295
4420.427221
4411.137152
4448.693524
4425.082285
4417.699956
4428.474629
4428.000275
4428.476115
4429.023392
4429.130551
4429.560517
4429.682310
4430.084700
4430.236489
4430.664578
4430.706107
4430.901973
4430.772462
4430.014320
4421.017083
4427.314957
4427.234781
4428.142635
4428.604331
4428.927861
4429.483097
4429.581626
4430.092756
4429.984071
4430.308228
4430.356919
4430.612132
4430.678134
4430.806906
4423.578604
4427.250434
4426.895699
4427.616968
4428.341662
4428.391076
4428.999289
4428.973970
4429.553016
4429.573999
4430.241502
4429.907709
4429.908284
4430.268128
4429.441754
4424.764874
4427.493055
4427.347596
4427.928663
4428.353928
4428.618345
4429.085714
4429.197312
4429.556058
4429.435528
4429.479542
4429.330315
4429.820277
4428.855709
4429.559242
4426.172937
4427.672475
4427.598645
4427.700186
4428.243002
4428.187547
4428.751447
4428.574277
4429.161059
4428.986856
4429.731546
4429.074823
4429.700321
4428.062051
4429.126710
4426.528679
4427.934557
4427.951465
4427.845279
4428.640871
4428.269454
4429.103678
4428.688362
4429.453618
4428.741068
4429.293912
4428.608076
4429.164273
4427.936768
4428.766693
4426.904077
4428.147925
4427.869875
4428.022370
4428.158459
4428.183483
4428.545289
4428.429808
4428.741502
4428.891082
4429.140051
4429.051434
4428.903577
4428.073665
4428.979113
4427.222190
4428.372319
4428.047007
4428.197883
4428.410662
4428.554906
4428.618227
4428.822926
4428.946998
4428.759989
4428.898084
4428.559503
4428.866853
4427.818682
4428.036409
4427.225903
4428.353590
4428.091350
4428.058912
4428.273149
4428.002675
4428.548716
4428.145190
4428.695935
4428.529005
4429.304810
4428.849564
4429.735740
4428.619041
4428.322235
4427.600208
4428.478169
4428.208770
4428.214004
4428.448921
4428.411523
4428.608433
4428.534381
4428.806361
4428.643947
4428.681789
4429.054516
4429.146821
4429.193095
4431.517665
4427.367775
4428.515225
4428.088393
4428.152186
4428.102532
4428.106112
4428.133358
4428.156772
4428.274446
4428.389689
4429.058072
4428.760967
4430.228106
4429.698361
4430.069591
4427.548561
4428.680652
4428.018425
4428.362635
4428.274048
4428.285838
4428.405494
4428.245036
4428.520941
4428.278765
4428.416693
4428.547197
4429.038090
4429.516440
4431.056177
4427.646454
4428.520890
4428.149605
4428.135806
4427.935528
4428.071079
4427.797751
4428.037443
4427.786768
4428.181128
4428.054418
4428.468590
4428.808029
4429.336475
4429.766896
4439.344936
4437.052894
4408.087508
4459.492550
4447.184826
4447.526978
4431.607176
4449.378638
4409.736076
4443.113303
4391.997138
4463.848177
4407.917877
4451.809047
4423.704069
4407.650678
4427.716679
4428.603320
4428.112688
4428.185270
4428.236158
4428.053335
4428.140385
4427.995544
4427.996601
4427.681013
4427.775917
4427.524736
4427.262957
4427.971151
4427.651439
4424.593974
4454.638400
4416.702987
4431.998666
4418.847126
4432.569400
4410.029482
4418.921240
4452.062309
4430.177093
4429.787126
4455.127761
4429.242598
4452.647940
4398.210890
4402.399861
4427.473343
4428.463435
4428.130998
4427.982769
4427.966919
4427.574737
4427.918770
4427.111188
4427.756478
4427.083935
4427.695633
4427.041375
4427.715732
4426.162186
4428.572697
4421.608122
4449.747879
4438.408679
4403.274276
4395.747821
4445.049092
4476.613641
4411.400628
4446.102741
4400.239591
4441.493146
4416.823944
4415.829501
4438.517118
4377.368871
4438.291237
4427.638158
4428.524551
4428.178611
4427.893076
4428.183321
4427.798983
4427.773726
4427.688608
4427.513738
4427.089372
4427.266987
4426.207434
4426.897598
4424.153238
4426.906371
4419.398940
4416.572876
4409.072850
4373.012194
4395.150382
4447.261965
4395.862047
4453.454767
4385.055406
4439.107828
4416.381630
4416.444213
4396.777059
4433.452542
4433.820760
4421.827212
4427.326789
4428.588352
4427.823232
4428.130719
4427.620482
4427.482055
4427.536159
4426.990090
4427.162998
4426.958859
4426.761765
4426.051044
4425.971111
4424.266853
4422.181284
4439.250998
4463.032292
4418.429375
4441.271482
4456.635437
4430.923438
4465.196212
4436.094688
4431.973708
4416.494888
4448.649537
4448.446528
4391.674731
4370.446035
4434.155491
4408.296580
4427.391995
4428.639311
4427.878454
4428.014645
4427.707674
4427.866567
4427.375201
4427.484225
4427.313995
4426.623338
4426.541757
4426.095790
4425.232589
4423.990642
4422.855346
4416.439569
4396.364644
4451.175769
4430.185073
4497.802173
4389.281123
4470.124325
4445.178357
4412.447754
4406.870497
4392.660412
4446.149736
4409.352779
4456.853599
4440.526769
4426.648424
4427.582691
4428.368589
4428.051576
4427.753539
4427.767741
4427.256194
4427.353921
4427.251280
4426.561942
4427.281675
4426.049103
4426.054829
4425.781518
4424.341925
4423.773207
4453.427077
4444.285999
4455.301308
4386.645780
4337.664682
4446.781114
4487.612666
4488.946524
4445.798127
4418.459718
4438.336006
4439.814990
4490.446214
4441.424542
4486.420812
4406.500938
4427.439782
4428.561907
4427.836215
4428.028429
4427.590439
4427.715724
4427.608077
4426.974064
4427.722195
4426.096258
4427.280917
4425.934090
4426.234501
4425.927536
4425.279842
4435.634940
4415.997506
4431.643186
4393.357539
4409.105513
4462.765169
4472.189635
4378.319382
4395.460331
4429.262455
4458.950086
4444.446376
4399.738833
4452.811924
4407.089449
4427.934517
4427.366116
4428.315298
4428.030695
4427.531928
4427.990776
4427.129240
4427.670283
4426.998991
4427.251974
4426.791225
4426.924847
4426.574408
4426.859187
4426.749108
4427.355312
4432.092653
4448.877650
4392.496253
4429.583449
4410.845190
4433.520055
4439.579830
4431.838479
4496.617759
4447.193023
4416.348238
4363.206308
4402.983579
4447.725229
4406.643747
4418.035692
4427.487745
4428.264096
4428.208716
4427.610664
4428.095356
4427.388271
4427.781605
4427.226507
4427.081175
4426.940325
4426.949880
4426.239717
4427.599755
4425.990653
4426.687392
4435.581459
4429.681051
4436.295370
4439.779426
4359.987420
4400.829600
4498.489153
4469.274525
4473.012711
4396.223203
4425.089427
4453.046995
4402.442220
4445.808966
4423.799771
4437.017030
4427.436825
4428.520750
4427.797064
4428.091220
4427.486393
4427.660606
4427.381202
4426.832515
4427.582709
4426.213164
4427.228420
4426.737010
4426.288093
4425.882301
4425.663401
4428.271351
4420.931328
4426.764829
4409.585797
4464.636361
4437.155291
4495.214032
4524.845216
4461.140963
4434.535337
4432.489599
4439.640538
4439.611744
4442.406834
4373.566293
4405.543928
4427.556613
4428.529454
4427.916609
4427.804203
4427.952811
4427.334742
4427.602428
4427.285090
4426.809776
4427.220773
4427.118746
4426.284575
4426.933656
4425.527880
4424.291386
4443.844946
4448.072641
4413.879225
4421.402566
4407.329352
4437.621647
4447.198939
4504.193744
4503.842893
4485.983293
4462.313610
4407.212872
4425.354284
4388.538241
4282.216458
4446.594361
4427.681760
4428.278682
4428.290296
4427.675819
4427.820284
4427.412530
4427.422765
4427.009522
4427.586691
4426.997877
4427.025584
4426.847977
4426.678706
4426.310692
4426.369432
4427.331268
4427.469445
4434.432155
4467.142501
4455.753711
4391.022170
4475.615542
4440.397664
4428.781386
4417.153287
4451.929770
4463.149241
4397.301063
4427.756658
4505.089743
4447.399861
4427.590160
4428.654534
4427.877199
4428.138368
4427.745973
4427.609124
4427.862997
4427.389982
4427.562771
4426.841232
4427.408828
4426.310518
4426.896607
4425.609668
4426.511571
4432.237285
4405.526077
4431.809473
4456.737971
4471.665997
4528.609367
4507.752525
4455.943464
4475.426769
4474.147719
4451.228745
4434.774486
4435.254392
4407.012412
4415.285100
4432.056757
4427.457155
4428.713490
4428.024036
4427.861438
4428.068624
4427.696347
4427.610460
4427.501813
4427.225907
4427.194380
4426.423846
4426.718671
4426.862189
4427.097138
4425.978022
4436.150067
4431.848458
4416.714343
4437.282602
4451.305551
4468.640213
4481.467961
4455.239330
4414.969351
4475.156372
4470.132563
4472.892622
4422.947642
4447.851561
4410.212156
4424.731363
4427.637553
4428.731364
4428.077019
4428.556295
4427.747912
4428.150593
4427.687433
4427.599356
4427.413493
4426.731442
4427.513210
4426.598439
4427.171457
4427.424299
4426.885077
4433.600869
4434.338137
4418.446588
4435.391912
4439.085938
4428.005828
4456.340385
4486.750534
4458.639044
4446.433853
4474.851758
4462.307723
4457.188827
4407.073570
4430.980022
4423.013736
4427.866350
4429.038649
4428.102351
4428.418606
4428.066597
4428.127129
4427.732885
4427.826513
4427.373149
4427.757816
4426.689074
4427.329174
4426.825122
4426.307619
4427.360633
4428.085337
4439.245677
4408.625315
4417.957253
4441.462187
4466.193093
4454.983957
4480.109902
4449.852907
4415.049875
4418.355543
4458.634110
4458.226081
4433.440718
4395.224175
4424.007047
4427.954050
4428.918100
4428.475849
4428.489829
4428.370248
4428.128577
4428.035517
4427.841535
4427.533274
4426.999769
4427.153756
4426.712208
4426.037090
4426.277600
4424.512524
4427.075931
4423.053960
4437.700085
4446.566281
4427.474213
4463.269727
4445.763629
4433.349801
4455.480420
4440.407163
4461.634641
4462.157756
4470.536339
4458.809789
4427.311520
4438.087981
4428.292689
4429.024486
4428.644412
4428.768231
4428.204035
4428.328421
4427.915447
4427.664143
4427.506667
4427.186030
4427.183892
4426.362005
4427.148237
4425.870677
4424.778766
4415.047637
4429.307188
4427.434349
4464.125318
4441.432200
4466.198225
4446.436658
4479.855414
4449.488093
4437.994651
4438.974527
4443.568184
4432.797693
4460.811033
4468.105898
4417.235342
4428.332015
4429.409798
4428.646961
4428.833917
4428.547434
4428.436196
4428.121630
4428.214571
4427.711165
4427.820281
4426.829460
4427.781078
4425.272478
4424.886933
4427.360305
4431.590038
4411.764499
4418.674270
4413.679209
4422.049396
4425.770801
4454.875241
4458.521437
4451.026809
4441.859516
4421.132357
4430.168925
4435.455943
4434.625668
4424.366259
4407.953719
4428.541767
4429.400066
4428.887500
4429.016234
4428.717260
4428.636595
4428.623897
4428.310469
4428.282439
4427.701031
4428.142730
4425.824625
4427.391636
4427.162879
4423.540671
4431.140821
4432.990162
4439.925809
4428.715875
4437.055223
4410.282522
4455.651641
4415.151857
4462.017042
4439.382743
4449.001437
4435.702260
4435.116042
4441.678341
4376.061483
4452.070523
4428.943852
4429.618753
4429.190639
4429.393832
4428.959576
4429.194073
4428.648183
4428.583096
4428.387800
4428.001122
4426.966472
4427.695026
4426.470328
4425.219755
4426.642671
4422.357603
4417.163100
4440.446368
4427.539514
4427.521770
4454.508648
4449.696390
4459.823474
4417.759704
4450.326305
4462.573435
4458.536034
4430.332299
4458.798126
4532.616298
4455.798307
4429.371992
4429.930235
4429.326948
4429.658368
4429.149979
4429.367565
4428.698068
4429.318933
4427.961829
4428.993492
4427.543159
4427.267772
4426.301259
4426.970241
4427.504201
4441.942616
4428.893301
4428.768306
4432.627642
4401.121522
4424.749266
4415.753154
4453.205366
4454.532653
4412.033031
4433.376139
4458.001947
4421.229328
4453.588263
4443.260925
4427.110458