# vtk DataFile Version 2.0
mfree iwf
ASCII

DATASET UNSTRUCTURED_GRID
POINTS 10047 float
0.000000 0.000445 0.000000
0.000000 0.000450 0.000000
0.000000 0.000455 0.000000
0.000000 0.000460 0.000000
0.000000 0.000465 0.000000
0.000000 0.000470 0.000000
0.000000 0.000475 0.000000
0.000000 0.000480 0.000000
0.000000 0.000485 0.000000
0.000000 0.000490 0.000000
-0.000000 0.000496 0.000000
0.000002 0.000500 0.000000
0.000525 0.000823 0.000000
0.000533 0.000828 0.000000
0.000575 0.000848 0.000000
0.000581 0.000849 0.000000
0.000581 0.000849 0.000000
0.000587 0.000851 0.000000
0.000594 0.000853 0.000000
0.000590 0.000852 0.000000
0.000604 0.000857 0.000000
0.000630 0.000865 0.000000
0.000636 0.000865 0.000000
0.000641 0.000864 0.000000
0.000645 0.000864 0.000000
0.000651 0.000864 0.000000
0.000655 0.000864 0.000000
0.000661 0.000863 0.000000
0.000664 0.000862 0.000000
0.000671 0.000862 0.000000
0.000677 0.000862 0.000000
0.000702 0.000862 0.000000
0.000005 0.000445 0.000000
0.000005 0.000450 0.000000
0.000005 0.000455 0.000000
0.000005 0.000460 0.000000
0.000005 0.000465 0.000000
0.000005 0.000470 0.000000
0.000005 0.000475 0.000000
0.000005 0.000480 0.000000
0.000005 0.000485 0.000000
0.000006 0.000490 0.000000
0.000004 0.000496 0.000000
0.000006 0.000499 0.000000
0.000570 0.000845 0.000000
0.000582 0.000842 0.000000
0.000611 0.000857 0.000000
0.000617 0.000859 0.000000
0.000622 0.000860 0.000000
0.000626 0.000861 0.000000
0.000629 0.000861 0.000000
0.000634 0.000860 0.000000
0.000638 0.000859 0.000000
0.000645 0.000860 0.000000
0.000652 0.000859 0.000000
0.000658 0.000859 0.000000
0.000665 0.000857 0.000000
0.000673 0.000858 0.000000
0.000677 0.000857 0.000000
0.000683 0.000856 0.000000
0.000693 0.000860 0.000000
0.000696 0.000860 0.000000
0.000690 0.000860 0.000000
0.000701 0.000861 0.000000
0.000010 0.000445 0.000000
0.000010 0.000450 0.000000
0.000010 0.000455 0.000000
0.000010 0.000460 0.000000
0.000010 0.000465 0.000000
0.000011 0.000470 0.000000
0.000010 0.000475 0.000000
0.000011 0.000480 0.000000
0.000009 0.000486 0.000000
0.000012 0.000490 0.000000
0.000009 0.000497 0.000000
0.000011 0.000498 0.000000
0.000574 0.000842 0.000000
0.000585 0.000842 0.000000
0.000599 0.000850 0.000000
0.000605 0.000853 0.000000
0.000609 0.000855 0.000000
0.000614 0.000857 0.000000
0.000613 0.000849 0.000000
0.000621 0.000853 0.000000
0.000625 0.000853 0.000000
0.000632 0.000856 0.000000
0.000640 0.000856 0.000000
0.000646 0.000856 0.000000
0.000648 0.000853 0.000000
0.000654 0.000851 0.000000
0.000660 0.000855 0.000000
0.000670 0.000856 0.000000
0.000686 0.000856 0.000000
0.000688 0.000857 0.000000
0.000697 0.000856 0.000000
0.000702 0.000853 0.000000
0.000015 0.000445 0.000000
0.000015 0.000450 0.000000
0.000015 0.000455 0.000000
0.000015 0.000460 0.000000
0.000015 0.000465 0.000000
0.000016 0.000470 0.000000
0.000014 0.000476 0.000000
0.000016 0.000480 0.000000
0.000014 0.000485 0.000000
0.000016 0.000489 0.000000
0.000014 0.000495 0.000000
0.000017 0.000497 0.000000
0.000025 0.000500 0.000000
0.000588 0.000845 0.000000
0.000601 0.000850 0.000000
0.000603 0.000846 0.000000
0.000615 0.000851 0.000000
0.000619 0.000858 0.000000
0.000629 0.000853 0.000000
0.000633 0.000850 0.000000
0.000636 0.000846 0.000000
0.000642 0.000852 0.000000
0.000656 0.000845 0.000000
0.000654 0.000856 0.000000
0.000664 0.000849 0.000000
0.000666 0.000853 0.000000
0.000672 0.000851 0.000000
0.000675 0.000852 0.000000
0.000681 0.000851 0.000000
0.000688 0.000851 0.000000
0.000692 0.000852 0.000000
0.000702 0.000849 0.000000
0.000020 0.000445 0.000000
0.000021 0.000450 0.000000
0.000019 0.000455 0.000000
0.000021 0.000459 0.000000
0.000018 0.000466 0.000000
0.000023 0.000468 0.000000
0.000019 0.000474 0.000000
0.000022 0.000479 0.000000
0.000019 0.000486 0.000000
0.000021 0.000491 0.000000
0.000021 0.000497 0.000000
0.000022 0.000499 0.000000
0.000039 0.000500 0.000000
0.000592 0.000836 0.000000
0.000595 0.000843 0.000000
0.000602 0.000841 0.000000
0.000606 0.000849 0.000000
0.000616 0.000845 0.000000
0.000625 0.000842 0.000000
0.000636 0.000852 0.000000
0.000627 0.000846 0.000000
0.000644 0.000842 0.000000
0.000649 0.000839 0.000000
0.000655 0.000839 0.000000
0.000660 0.000846 0.000000
0.000668 0.000847 0.000000
0.000673 0.000845 0.000000
0.000683 0.000845 0.000000
0.000684 0.000847 0.000000
0.000694 0.000846 0.000000
0.000696 0.000850 0.000000
0.000702 0.000845 0.000000
0.000025 0.000445 0.000000
0.000026 0.000450 0.000000
0.000025 0.000455 0.000000
0.000026 0.000461 0.000000
0.000024 0.000465 0.000000
0.000026 0.000472 0.000000
0.000023 0.000476 0.000000
0.000027 0.000481 0.000000
0.000024 0.000485 0.000000
0.000026 0.000488 0.000000
0.000026 0.000492 0.000000
0.000027 0.000500 0.000000
0.000550 0.000837 0.000000
0.000592 0.000844 0.000000
0.000595 0.000846 0.000000
0.000610 0.000846 0.000000
0.000613 0.000841 0.000000
0.000623 0.000848 0.000000
0.000631 0.000844 0.000000
0.000621 0.000844 0.000000
0.000635 0.000840 0.000000
0.000641 0.000848 0.000000
0.000650 0.000848 0.000000
0.000646 0.000847 0.000000
0.000659 0.000851 0.000000
0.000663 0.000843 0.000000
0.000678 0.000847 0.000000
0.000675 0.000841 0.000000
0.000690 0.000845 0.000000
0.000684 0.000840 0.000000
0.000696 0.000843 0.000000
0.000701 0.000840 0.000000
0.000030 0.000445 0.000000
0.000030 0.000450 0.000000
0.000030 0.000456 0.000000
0.000030 0.000460 0.000000
0.000032 0.000464 0.000000
0.000028 0.000469 0.000000
0.000032 0.000472 0.000000
0.000030 0.000477 0.000000
0.000031 0.000486 0.000000
0.000031 0.000492 0.000000
0.000033 0.000497 0.000000
0.000031 0.000499 0.000000
0.000049 0.000500 0.000000
0.000584 0.000835 0.000000
0.000602 0.000837 0.000000
0.000608 0.000841 0.000000
0.000608 0.000837 0.000000
0.000618 0.000839 0.000000
0.000629 0.000837 0.000000
0.000640 0.000843 0.000000
0.000633 0.000839 0.000000
0.000643 0.000838 0.000000
0.000651 0.000843 0.000000
0.000666 0.000837 0.000000
0.000660 0.000839 0.000000
0.000668 0.000842 0.000000
0.000672 0.000836 0.000000
0.000677 0.000840 0.000000
0.000686 0.000837 0.000000
0.000690 0.000840 0.000000
0.000695 0.000838 0.000000
0.000701 0.000836 0.000000
0.000035 0.000445 0.000000
0.000035 0.000450 0.000000
0.000034 0.000455 0.000000
0.000039 0.000455 0.000000
0.000034 0.000467 0.000000
0.000037 0.000473 0.000000
0.000032 0.000479 0.000000
0.000042 0.000479 0.000000
0.000035 0.000483 0.000000
0.000034 0.000488 0.000000
0.000038 0.000491 0.000000
0.000036 0.000498 0.000000
0.000516 0.000814 0.000000
0.000547 0.000836 0.000000
0.000595 0.000834 0.000000
0.000605 0.000833 0.000000
0.000618 0.000835 0.000000
0.000616 0.000830 0.000000
0.000623 0.000838 0.000000
0.000630 0.000831 0.000000
0.000640 0.000835 0.000000
0.000639 0.000830 0.000000
0.000648 0.000829 0.000000
0.000657 0.000836 0.000000
0.000660 0.000833 0.000000
0.000672 0.000831 0.000000
0.000681 0.000836 0.000000
0.000681 0.000826 0.000000
0.000688 0.000835 0.000000
0.000691 0.000832 0.000000
0.000696 0.000834 0.000000
0.000701 0.000831 0.000000
0.000040 0.000445 0.000000
0.000041 0.000450 0.000000
0.000036 0.000462 0.000000
0.000040 0.000458 0.000000
0.000041 0.000463 0.000000
0.000040 0.000468 0.000000
0.000041 0.000472 0.000000
0.000037 0.000477 0.000000
0.000041 0.000488 0.000000
0.000042 0.000491 0.000000
0.000041 0.000497 0.000000
0.000045 0.000498 0.000000
0.000441 0.000675 0.000000
0.000577 0.000840 0.000000
0.000588 0.000833 0.000000
0.000604 0.000826 0.000000
0.000613 0.000835 0.000000
0.000625 0.000834 0.000000
0.000621 0.000830 0.000000
0.000634 0.000833 0.000000
0.000645 0.000834 0.000000
0.000650 0.000835 0.000000
0.000643 0.000829 0.000000
0.000657 0.000829 0.000000
0.000662 0.000829 0.000000
0.000671 0.000826 0.000000
0.000667 0.000834 0.000000
0.000677 0.000833 0.000000
0.000681 0.000831 0.000000
0.000688 0.000828 0.000000
0.000695 0.000829 0.000000
0.000700 0.000826 0.000000
0.000044 0.000445 0.000000
0.000047 0.000450 0.000000
0.000044 0.000454 0.000000
0.000046 0.000461 0.000000
0.000044 0.000467 0.000000
0.000046 0.000474 0.000000
0.000046 0.000479 0.000000
0.000040 0.000483 0.000000
0.000052 0.000486 0.000000
0.000045 0.000483 0.000000
0.000048 0.000493 0.000000
0.000050 0.000498 0.000000
0.000442 0.000685 0.000000
0.000568 0.000843 0.000000
0.000598 0.000839 0.000000
0.000610 0.000832 0.000000
0.000611 0.000828 0.000000
0.000625 0.000829 0.000000
0.000631 0.000826 0.000000
0.000635 0.000829 0.000000
0.000642 0.000824 0.000000
0.000651 0.000826 0.000000
0.000653 0.000831 0.000000
0.000666 0.000830 0.000000
0.000656 0.000824 0.000000
0.000669 0.000822 0.000000
0.000677 0.000827 0.000000
0.000684 0.000826 0.000000
0.000686 0.000823 0.000000
0.000691 0.000825 0.000000
0.000695 0.000824 0.000000
0.000700 0.000821 0.000000
0.000049 0.000445 0.000000
0.000052 0.000450 0.000000
0.000048 0.000456 0.000000
0.000053 0.000458 0.000000
0.000048 0.000464 0.000000
0.000050 0.000472 0.000000
0.000051 0.000467 0.000000
0.000051 0.000477 0.000000
0.000047 0.000488 0.000000
0.000052 0.000491 0.000000
0.000058 0.000492 0.000000
0.000053 0.000498 0.000000
0.000477 0.000770 0.000000
0.000564 0.000835 0.000000
0.000578 0.000836 0.000000
0.000602 0.000829 0.000000
0.000614 0.000824 0.000000
0.000619 0.000825 0.000000
0.000623 0.000822 0.000000
0.000627 0.000823 0.000000
0.000639 0.000820 0.000000
0.000637 0.000824 0.000000
0.000646 0.000820 0.000000
0.000656 0.000820 0.000000
0.000662 0.000821 0.000000
0.000665 0.000824 0.000000
0.000674 0.000823 0.000000
0.000679 0.000817 0.000000
0.000677 0.000820 0.000000
0.000689 0.000819 0.000000
0.000695 0.000819 0.000000
0.000700 0.000816 0.000000
0.000054 0.000445 0.000000
0.000057 0.000450 0.000000
0.000054 0.000454 0.000000
0.000054 0.000463 0.000000
0.000057 0.000467 0.000000
0.000054 0.000472 0.000000
0.000057 0.000477 0.000000
0.000057 0.000480 0.000000
0.000052 0.000483 0.000000
0.000057 0.000486 0.000000
0.000056 0.000497 0.000000
0.000059 0.000496 0.000000
0.000492 0.000788 0.000000
0.000566 0.000843 0.000000
0.000570 0.000837 0.000000
[...]
POINT_DATA 10047
SCALARS density float 1
LOOKUP_TABLE default
4427.825671
4428.600469
4428.358485
4425.472129
4431.045214
4428.996419
4430.162773
4430.225392
4438.749270
4423.197746
4430.958261
4400.735212
4419.524421
4437.807052
4427.595924
4433.202732
4441.577045
4439.469747
4448.016866
4442.616571
4431.684521
4422.626981
4412.197191
4444.263098
4426.937279
4417.838933
4448.477272
4433.939153
4425.128751
4450.193701
4426.771942
4426.315358
4429.553587
4430.971849
4428.895570
4431.699490
4432.835560
4422.679383
4432.095721
4423.016144
4406.530464
4416.115710
4456.073377
4408.034844
4417.631536
4426.323844
4415.936361
4406.897719
4426.403457
4425.272632
4436.111297
4447.262893
4424.725554
4410.650466
4434.141356
4400.872691
4427.590339
4402.589117
4422.544040
4464.209856
4405.545113
4425.004078
4399.400334
4407.037888
4428.980250
4431.598112
4425.836510
4428.944632
4419.556711
4416.463575
4453.462326
4391.004145
4486.463367
4374.606908
4454.715185
4396.548376
4441.451381
4441.800135
4424.633833
4387.693970
4420.314259
4410.752483
4465.228115
4422.261961
4417.753241
4423.218735
4422.643291
4456.665906
4401.507989
4435.749220
4439.513827
4414.687568
4448.714288
4439.365217
4471.041025
4418.594036
4427.552667
4434.231199
4444.064650
4421.442468
4447.154227
4409.291503
4464.201974
4376.666533
4475.432355
4377.104445
4523.932032
4402.137351
4437.958123
4388.129137
4434.472771
4419.481640
4454.094330
4450.864988
4405.137952
4459.419594
4416.391426
4441.788902
4404.412149
4434.962911
4433.368326
4432.574665
4448.947521
4468.641185
4403.017560
4342.016425
4498.787430
4461.639100
4433.817354
4434.824755
4444.151291
4430.626391
4438.345827
4423.295001
4425.090233
4450.669595
4473.752050
4366.577921
4475.005611
4437.375222
4419.215015
4417.163864
4437.594616
4423.846947
4505.030382
4412.374438
4441.634973
4427.833740
4473.407698
4422.731577
4417.773747
4431.280178
4450.397071
4427.507953
4427.061602
4468.787779
4483.233336
4446.918475
4334.057425
4414.940940
4427.078587
4429.054032
4434.939744
4424.779291
4433.624832
4417.408537
4470.915095
4342.487438
4442.482381
4473.642726
4399.444350
4429.440200
4435.565279
4434.381808
4404.623941
4373.124836
4470.361475
4401.778154
4381.767262
4429.640340
4439.557530
4436.206402
4457.203172
4414.572112
4423.945757
4448.203567
4368.226184
4455.796288
4441.453015
4362.599818
4460.843814
4414.952384
4424.799613
4426.320658
4427.904900
4426.953632
4435.748324
4443.865864
4405.553833
4469.291864
4441.944408
4418.919942
4458.631584
4423.956888
4420.020057
4421.782839
4438.861500
4441.869397
4413.665502
4432.945640
4401.675603
4445.740885
4472.625547
4452.294028
4423.673460
4445.003957
4414.542110
4399.915041
4397.647168
4442.047380
4473.797950
4367.688164
4429.746289
4442.157963
4430.956666
4416.011980
4441.040642
4435.904450
4438.965999
4423.476129
4452.955025
4423.301156
4413.360631
4425.920381
4407.665409
4444.429712
4425.880608
4422.821595
4447.417722
4426.957022
4429.935574
4461.432248
4429.420429
4435.770765
4382.288405
4458.005927
4434.077755
4454.831366
4398.478019
4415.383840
4419.781904
4437.923550
4488.541454
4413.155218
4408.614649
4416.486420
4432.128969
4433.365600
4421.898436
4449.225382
4417.526714
4436.219074
4447.254423
4413.222986
4451.855972
4428.666002
4438.081897
4425.465708
4434.267663
4424.699859
4387.063530
4449.347512
4408.542217
4448.032468
4431.374422
4427.467132
4447.501004
4408.807350
4432.388007
4432.982933
4432.663450
4421.542285
4454.921217
4432.769823
4419.185890
4380.368170
4455.008862
4425.765464
4437.323130
4417.960731
4415.076969
4430.478918
4405.427542
4428.689651
4449.595429
4428.215434
4445.965780
4410.336127
4467.052028
4436.304775
4435.485081
4431.193401
4421.757281
4459.790724
4398.938536
4417.084469
4412.903065
4455.573940
4415.797332
4427.749166
4424.440390
4428.463348
4424.192430
4443.848291
4443.987329
4471.246309
4441.926832
4445.659941
4413.095374
4430.603568
4427.956913
4422.409640
4430.145533
4400.776925
4439.271356
4428.064007
4439.936151
4392.403455
4390.802997
4416.716934
4508.870602
4413.740732
4440.234010
4435.333176
4416.618262
4453.371355
4461.606196
4397.722072
4440.793046
4440.156782
4441.714240
4422.672352
4456.457818
4451.005001
4402.208317
4441.162882
4424.148466
4463.518568
4419.114242
4414.950005
4419.975167
4434.493940
4435.239031
4428.238089
4444.306093
4417.228193
4404.885576
4454.998914
4423.550209
4438.177420
4469.694272
4365.899460
4420.423849
4404.321514
4428.013456
4420.123721
4464.176042
4406.747628
4462.537534
4410.352002
4385.404072
4440.891930
4417.825056
4436.358732
4415.653300
4428.066929
4417.933004
4420.091713
4453.459572
4400.714483
4457.861559
4450.336192
4427.369023
4419.847115
4428.585268
4439.901934
4422.597336
4412.087899
4449.819734
4440.699463
4419.299533
4411.387418
4469.940399
4418.967754
4443.365946
4434.698790
4409.887406
4434.514170
4459.625943
4383.851374
4375.986061
4454.538836
4435.362489
4452.728866
4433.635315
4419.772372
4469.860724
4435.249101
4386.239835
4442.234839
4430.722372
4427.550454
4402.593538
4401.767671
4431.515313
4434.040035
4437.072498
4414.958764
4445.717760
4390.573281
4449.968541
4428.869285
4447.319051
4408.924802
4458.425435
4359.589299
4465.621539
4423.758824
4420.051460
4424.681284
4436.278494
4425.212560
4437.934741
4400.207035
4431.677669
4429.361692
4376.063727
4438.448883
4453.259835
4429.846816
4435.266623
4419.279641
4449.850685
4431.118371
4430.131690
4449.012220
4427.544000
4423.295832
4431.367370
4412.962334
4431.205360
4446.712483
4462.615268
4451.155665
4433.499829
4427.425542
4386.391512
4423.994049
4432.200372
4450.067093
4429.554958
4415.686604
4438.867300
4494.878876
4456.525946
4441.855645
4453.687532
4455.539643
4344.793658
4447.202641
4438.141460
4432.233067
4425.866533
4426.783427
4440.420891
4398.566029
4420.555218
4405.291992
4435.556202
4432.547990
4434.269249
4417.544259
4441.137881
4394.321374
4396.685337
4433.507223
4454.668222
4420.268004
4485.908843
4352.648684
4411.107387
4452.688468
4430.385869
4414.305289
4431.303087
4381.514199
4449.184953
4455.349641
4405.793891
4458.410428
4439.664664
4410.158825
4446.180848
4440.491248
4413.593731
4434.198600
4429.070666
4438.475690
4429.909234
4439.275476
4426.425766
4422.408165
4405.084208
4428.249641
4453.369722
4446.501303
4410.927690
4418.351743
4444.210909
4457.557906
4423.659891
4517.646263
4396.653795
4426.268386
4427.792158
4426.923559
4443.037896
4432.956943
4460.455137
4413.378620
4431.341928
4429.654209
4427.583475
4456.649997
4446.727484
4414.601078
4433.967150
4428.145077
4409.593636
4452.571005
4401.524702
4445.265380
4418.271818
4443.124071
4440.655127
4409.786951
4418.574207
4449.905226
4446.742323
4439.716669
4415.131808
4450.384025
4383.658333
4375.317380
4442.147062
4474.785489
4427.008714
4436.179152
4444.411457
4429.644861
4360.720924
4396.829125
4470.493572
4479.793397
4416.194592
4471.048336
4412.143171
4441.538983
4405.678143
4451.649158
4419.478293
4421.636429
4440.920695
4452.310167
4408.630715
4432.311217
4420.880322
4424.306960
4414.366159
4421.009497
4388.038483
4432.764242
4444.032046
4469.188125
4448.757732
4413.935587
4421.903260
4430.411150
4418.486106
4417.407788
4430.065841
4426.442057
4422.422924
4393.583051
4457.241547
4414.515792
4402.096868
4447.708649
4422.646048
4425.492916
4442.350612
4449.104434
4435.524195
4445.067169
4423.151918
4425.781174
4424.742330
4425.307514
4447.800807
4440.133270
4458.634253
4416.907686
4429.255757
4406.285442
4413.604513
4387.952072
4462.978471
4416.875655
4429.908709
4433.992400
4424.747842
4437.762133
4444.271113
4443.852615
4398.189088
4442.838037
4435.423636
4415.003254
4497.690111
4416.362196
4423.187663
4429.250185
4432.817635
4434.576987
4426.975889
4413.127317
4427.757407
4428.907255
4440.535108
4435.939973
4417.846234
4427.133171
4413.593859
4437.805659
4447.288586
4447.243726
4398.039153
4415.270637
4442.521614
4473.221205
4397.685303
4508.908575
4428.721233
4427.335418
4418.429485
4456.743839
4441.086474
4422.379043
4486.248821
4444.533828
4421.268244
4462.497810
4466.747872
4401.746817
4461.510322
4420.821470
4441.208665
4442.444209
4454.156010
4435.044640
4409.932889
4429.201762
4438.025132
4432.243703
4430.451540
4412.218499
4440.390074
4430.027227
4386.349083
4427.942232
4459.624652
4380.507797
4430.891583
4431.140025
4427.449540
4431.939828
4422.188608
4428.075563
4455.577706
4408.524343
4440.405168
4458.395015
4415.209751
4340.212901
4437.394589
4440.687038
4469.716794
4424.972360
4427.713823
4423.555987
4421.623039
4409.194501
4441.611559
4437.478872
4432.487449
4440.667341
4419.966395
4421.798312
4403.634107
4441.163104
4452.902996
4422.116319
4445.915013
4399.457010
4403.947509
4463.046321
4428.989009
4444.615962
4421.546708
4445.432312
4467.615840
4437.647031
4427.373659
4424.955720
4426.121872
4375.019546
4380.182885
4446.090380
4410.734824
4410.605122
4422.805075
4439.506560
4450.137267
4433.389848
4411.343636
4427.212868
4430.541873
4412.635960
4429.437521
4430.398523
4435.107341
4424.717230
4413.526022
4433.146618
4462.220855
4443.623529
4420.891861
4427.429157
4422.825341
4435.472021
4408.421245
4371.558022
4422.133953
4451.584692
4457.034910
4455.176417
4405.826377
4435.158014
4447.046249
4426.680638
4461.119513
4445.249479
4437.771250
4423.941292
4429.210712
4408.869660
4449.826072
4418.432525
4423.410502
4429.523051
4429.200929
4429.472841
4429.666710
4429.669507
4429.939471
4430.040207
4430.554556
4430.918480
4431.395362
4431.395843
4431.208323
4430.913507
4430.141993
4425.533236
4429.032800
4428.978592
4429.683497
4430.093509
4430.535931
4430.812802
4430.783769
4430.530013
4429.674275
4429.354284
4429.306322
4429.922294
4430.623337
4430.469599
4427.022243
4428.746725
4428.586034
4428.818583
4429.074268
4428.747394
4429.138079
4429.182866
4430.015676
4431.048035
4431.848196
4431.741045
4430.982666
4430.223733
4429.006878
4427.711326
4428.817402
4429.073624
4429.282080
4429.915496
4430.190127
4430.586488
4430.437642
4430.085906
4428.936332
4428.200553
4428.155785
4428.401439
4429.124393
4430.237219
4428.380861
4428.822614
4428.790065
4428.733417
4428.754508
4428.445763
4428.700556
4428.591986
4429.629066
4430.307336
4431.685507
4430.844012
4431.048803
4428.333170
4428.235269
4428.481644
4428.912807
4429.237039
4428.984716
4429.979536
4429.695977
4430.530960
4429.891483
4429.899189
4428.297472
4427.877446
4427.255481
4428.286815
4427.984931
4430.011400
4428.501808
4428.780161
4429.002126
4428.502068
4428.717365
4428.132925
4428.478532
4428.208902
4429.309368
4429.972335
4431.271823
4430.767250
4429.845266
4428.158374
4427.527507
4428.610231
4428.957155
4429.158966
4428.941874
4429.767015
4429.512258
4430.299653
4429.608769
4429.671944
4427.967470
4427.874607
4426.856891
4428.795351
4427.832383
4428.440764
4428.339256
4428.757673
4428.961631
4428.238402
4428.714807
4427.790686
4428.369503
4427.807705
4429.167255
4429.697589
4431.245689
4431.081282
4430.839724
4428.548164
4431.666597
4428.538376
4428.957462
4428.956107
4429.001686
4429.361711
4429.567013
4429.772383
4429.656483
4429.150432
4428.006633
4427.668500
4426.961149
4429.593781
4429.506795
4429.757751
4428.110231
4428.935047
4428.497576
4428.407415
4428.192250
4427.871204
4427.801458
4427.688350
4428.672797
4429.623672
4430.642173
4431.386901
4429.817788
4430.469665
4430.047208
4428.160343
4428.961438
4428.697247
4428.808643
4429.171904
4429.237614
4429.446439
4429.452826
4428.773365
4427.831183
4427.140062
4426.716832
4428.433303
4429.246162
4429.286628
4428.129439
4428.748525
4428.404308
4428.370903
4427.782901
4427.838522
4427.391903
4427.525629
4428.152332
4429.311279
4430.119553
4430.716359
4429.785200
4428.844162
4430.907370
4423.728205
4397.964591
4432.257178
4436.607425
4408.604056
4456.472612
4431.381993
4427.645415
4388.647826
4458.990152
4425.742954
4398.938203
4422.798019
4451.298637
4430.781032
4424.619598
4428.036120
4428.759386
4428.596770
4428.452572
4429.063553
4428.839785
4429.280856
4429.059402
4428.550587
4427.075086
4426.799242
4425.895578
4427.490748
4427.771623
4429.702392
4442.557044
4398.650981
4436.304683
4420.070856
4407.695681
4441.388117
4434.094444
4347.083951
4414.169650
4459.893013
4433.547299
4453.168715
4398.178868
4464.002390
4399.487746
4393.988981
4427.537794
4428.469149
4428.378916
4427.819440
4427.943626
4427.038004
4427.550744
4426.626064
4427.843524
4428.505291
4429.629345
4429.467146
4428.855675
4427.371063
4428.646291
4440.096562
4448.918407
4407.994468
4446.348362
4408.470195
4445.057106
4416.969271
4408.827856
4414.926515
4433.265908
4409.243026
4443.294620
4399.839815
4406.106859
4465.804207
4441.544555
4427.732657
4428.458520
4428.470684
4428.109328
4428.705534
4428.495864
4428.860002
4428.614103
4428.238809
4426.289809
4426.409177
4424.889859
4426.653265
4425.276486
4428.114137
4424.480309
4402.865533
4428.731053
4389.641832
4412.275328
4444.811497
4431.726800
4445.190039
4444.421783
4428.221551
4426.423946
4448.762881
4382.600218
4389.085220
4438.943498
4444.143306
4427.239473
4428.358639
4428.152353
4427.445763
4427.770021
4426.664011
4427.265307
4426.355085
4427.207577
4428.337690
4428.776765
4428.607197
4427.619766
4424.737486
4424.274776
4429.647135
4447.854394
4427.523703
4465.860981
4448.749315
4434.509928
4442.835407
4421.687701
4426.446409
4427.966330
4443.852583
4428.802334
4409.133868
4438.156017
4431.588171
4421.418873
4427.300798
4428.471870
4427.971795
4428.255370
4428.092893
4428.495092
4428.504127
4428.459892
4428.043726
4425.808925
4425.961356
4424.669166
4425.399328
4424.943961
4423.964938
4405.422751
4398.933677
4431.380913
4435.353286
4476.446717
4390.611802
4441.884840
4431.849209
4448.787065
4404.678658
4364.698263
4436.516570
4421.171931
4445.705702
4434.734323
4416.925437
4427.329895
4428.194075
4428.092719
4427.282074
4427.568164
4426.877854
4426.894196
4426.528207
4426.614130
4428.420621
4428.053282
4428.580083
4426.363284
4425.406344
4425.406108
4455.438647
4429.373430
4445.651396
4402.167198
4353.779044
4433.386018
4424.931714
4431.668859
4434.059019
4420.199165
4424.048745
4463.968128
4433.838500
4392.879345
4482.672424
4399.205364
4427.049809
4428.303804
4427.970099
4427.922064
4428.288313
4428.061485
4428.537307
4428.219582
4427.927130
4425.637152
4426.109053
4424.492661
4426.180190
4426.108913
4425.765723
4444.561121
4416.730568
4447.264590
4396.061365
4403.246287
4475.858502
4406.169759
4414.222314
4427.079528
4428.576961
4449.427079
4393.383310
4433.702155
4443.487625
4414.175839
4448.818835
4427.047425
4428.110826
4427.919770
4427.322996
4427.486224
4426.651921
4427.256828
4425.691700
4427.111792
4427.571005
4428.497352
4428.490632
4427.532144
4426.364870
4427.833672
4427.021510
4448.041105
4401.357789
4420.014630
4441.454966
4432.960306
4434.034404
4424.427895
4400.520870
4455.766683
4405.500412
4364.800058
4434.809319
4449.827876
4423.778042
4399.029744
4427.033095
4428.012566
4428.259100
4427.291345
4428.579320
4427.593634
4428.218664
4428.248150
4427.369756
4425.607592
4426.340504
4424.369401
4427.330925
4426.213632
4429.029408
4439.430499
4436.115523
4450.263796
4457.873059
4371.514776
4413.292884
4438.034585
4436.795126
4404.266143
4441.805521
4425.606886
4435.427861
4366.882954
4484.630352
4458.553415
4438.249137
4426.972177
4428.122056
4427.737579
4427.471438
4427.154417
4426.431394
4427.057051
4425.184216
4426.607154
4427.404499
4427.905773
4428.564801
4426.831161
4425.788592
4426.777572
4425.467403
4442.843526
4427.362831
4427.990057
4442.598312
4432.237583
4441.628383
4479.115692
4394.148066
4427.560836
4445.187201
4442.898150
4442.742117
4377.723245
4403.750138
4384.951579
4427.170175
4428.056172
4427.952154
4427.333999
4427.901252
4427.449259
4427.734036
4427.840775
4427.578267
4425.217249
4426.486270
4424.125355
4426.068971
4425.367679
4424.088634
4436.210840
4441.033892
4409.202996
4406.761978
4402.413169
4423.218069
4445.544530
4415.294387
4466.729953
4433.386333
4430.472460
4388.650470
4408.981913
4408.842907
4422.082083
4441.583068
4426.913453
4427.846489
4428.102424
4426.526692
4427.707225
4425.796971
4427.232630
4425.532769
4426.271820
4427.758920
4427.434760
4427.799302
4425.686148
4424.746511
4424.587710
4431.086729
4424.562370
4425.167262
4397.391603
4411.283951
4448.525051
4428.249097
4435.512467
4407.940192
4440.001447
4421.963844
4465.715298
4405.679445
4421.574282
4500.360960
4459.085501
4427.154828
4428.294311
4427.418088
4427.977893
4427.297317
4428.146832
4427.729409
4427.957419
4427.898477
4424.992805
4425.899317
4424.213317
4425.630079
4424.349455
4426.608678
4445.026643
4411.308002
4406.637256
4453.391211
4429.512343
4425.194523
4439.969410
4447.086379
4389.858408
4427.768250
4451.161949
4437.630752
4414.924177
4431.915640
4423.348840
4451.326921
4426.806877
4428.125071
4427.757820
4427.078501
4427.417128
4426.718837
4426.690415
4425.930588
4425.697272
4427.037327
4427.204848
4426.769707
4425.416696
4424.877934
4423.237379
4430.333279
4397.344766
4398.174144
4418.418387
4444.903866
4443.092046
4473.718047
4434.866549
4440.695917
4437.703301
4422.528173
4414.755876
4439.931664
4428.911608
4418.111715
4408.367048
4427.057492
4428.011896
4427.938835
4427.251812
4428.353685
4427.290328
4428.109330
4427.645030
4427.705591
4425.768793
4425.665929
4424.940352
4425.255463
4425.220640
4425.572213
4407.684767
4417.998530
4444.372390
4396.658015
4352.141941
4435.386018
4540.686610
4445.400927
4429.566511
4442.641671
4427.578560
4414.048135
4447.674742
4413.649084
4428.559039
4428.578433
4427.113901
4428.310323
4427.538361
4428.022974
4426.690343
4427.591005
4426.658972
4426.417917
4426.086275
4426.981786
4427.556708
4426.955957
4425.745972
4423.930221
4425.807722
4405.773499
4426.646350
4427.408083
4463.035387
4386.774125
4431.781203
4441.463220
4453.328881
4417.675623
4447.427934
4438.895940
4389.842713
4430.061851
4448.231636
4424.751129
4425.352623
4426.992450
4428.152314
4427.622511
4427.089662
4427.896518
4426.924850
4427.695852
4427.363665
4426.826587
4425.285055
4425.775583
4423.257330
4426.098365
4424.615446
4422.793830
4439.199280
4397.831247
4445.973587
4420.442543
4376.462976
4409.042685
4462.599462
4407.092421
4458.032259
4445.117104
4409.955230
4412.422503
4458.130917
4413.181626
4476.034064
4433.351287
4426.962815
4427.600575
4428.266821
4426.091671
4427.544257
4425.082573
4426.962092
4424.022462
4425.219863
4425.997197
4426.245155
4427.648771
4423.681302
4423.176929
4426.065158
4437.057654
4423.565121
4421.644228
4453.346957
4392.654593
4439.702815
4439.935333
4439.904115
4433.658315
4416.062429
4456.109043
4444.425134
4422.482944
4437.771426
4350.558429
4405.467154
4427.191262
4428.160294
4427.198664
4427.559312
4426.610685
4427.431930
4427.218103
4427.692569
4427.872432
4426.625337
4427.295228
4424.072380
4426.391564
4423.314220
4424.009395
4424.673314
4438.424683
4412.463156
4384.209174
4424.274221
4453.634297
4775.846389
4444.617147
4450.784061
4459.454844
4394.652478
4408.109520
4386.060885
4429.531539
4337.455304
4422.668235
4427.094783
4427.834498
4427.794325
4426.584574
4427.896527
4426.496323
4427.673534
4426.275550
4427.254162
4426.659492
4428.384411
4426.287997
4424.055201
4423.691682
4424.091303
4426.110748
4441.835153
4451.602780
4431.652667
4441.282315
4423.980706
4498.728042
4435.727999
4396.759972
4415.765957
4440.168231
4395.351931
4432.569886
4411.087769
4530.582296
4420.876003
4427.027763
4427.574888
4428.413803
4426.741666
4428.356474
4426.741524
4427.837523
4426.874144
4428.180006
4425.286061
4425.186223
4424.298282
4425.667431
4423.643600
4423.835732
4429.508287
4425.602678
4433.858044
4415.130256
4464.775264
4466.871874
4454.798334
4429.668253
4454.567066
4420.807351
4446.171759
4452.491436
4439.398178
4411.653498
4338.423702
4428.670548
4427.421770
4428.452824
4427.384207
4428.358870
4426.572468
4427.255391
4426.078972
4425.903552
4424.765171
4424.628881
4425.506749
4423.513705
4423.357604
4423.276256
4424.445031
4437.506794
4438.119732
4420.015313
4428.342664
4452.498850
4405.469480
4479.288006
4439.926865
4449.163736
4412.464618
4416.384688
4470.460639
4440.239832
4374.712460
4382.322733
4410.372510