# vtk DataFile Version 2.0
mfree iwf
ASCII

DATASET UNSTRUCTURED_GRID
POINTS 11907 float
-0.000000 0.000445 0.000000
-0.000000 0.000450 0.000000
-0.000000 0.000455 0.000000
-0.000000 0.000460 0.000000
-0.000000 0.000465 0.000000
-0.000000 0.000470 0.000000
-0.000000 0.000475 0.000000
-0.000000 0.000480 0.000000
0.000000 0.000485 0.000000
0.000000 0.000490 0.000000
-0.000000 0.000496 0.000000
0.000002 0.000500 0.000000
0.001369 0.001082 0.000000
0.001377 0.001079 0.000000
0.001418 0.001055 0.000000
0.001422 0.001052 0.000000
0.001422 0.001052 0.000000
0.001428 0.001048 0.000000
0.001434 0.001043 0.000000
0.001430 0.001046 0.000000
0.001442 0.001038 0.000000
0.001463 0.001021 0.000000
0.001467 0.001015 0.000000
0.001470 0.001012 0.000000
0.001472 0.001008 0.000000
0.001475 0.001004 0.000000
0.001478 0.000999 0.000000
0.001480 0.000995 0.000000
0.001482 0.000991 0.000000
0.001485 0.000986 0.000000
0.001489 0.000981 0.000000
0.001505 0.000967 0.000000
0.000005 0.000445 0.000000
0.000005 0.000450 0.000000
0.000005 0.000455 0.000000
0.000005 0.000460 0.000000
0.000005 0.000465 0.000000
0.000005 0.000470 0.000000
0.000005 0.000475 0.000000
0.000005 0.000480 0.000000
0.000005 0.000485 0.000000
0.000006 0.000489 0.000000
0.000003 0.000496 0.000000
0.000006 0.000499 0.000000
0.001414 0.001057 0.000000
0.001415 0.001047 0.000000
0.001447 0.001032 0.000000
0.001452 0.001028 0.000000
0.001456 0.001024 0.000000
0.001458 0.001022 0.000000
0.001460 0.001020 0.000000
0.001462 0.001015 0.000000
0.001464 0.001012 0.000000
0.001467 0.001007 0.000000
0.001472 0.001000 0.000000
0.001474 0.000995 0.000000
0.001477 0.000989 0.000000
0.001483 0.000982 0.000000
0.001484 0.000978 0.000000
0.001488 0.000974 0.000000
0.001497 0.000968 0.000000
0.001499 0.000967 0.000000
0.001495 0.000970 0.000000
0.001503 0.000965 0.000000
0.000010 0.000445 0.000000
0.000010 0.000450 0.000000
0.000010 0.000455 0.000000
0.000010 0.000460 0.000000
0.000010 0.000465 0.000000
0.000010 0.000469 0.000000
0.000010 0.000475 0.000000
0.000010 0.000479 0.000000
0.000009 0.000486 0.000000
0.000012 0.000489 0.000000
0.000008 0.000497 0.000000
0.000011 0.000498 0.000000
0.001412 0.001054 0.000000
0.001418 0.001045 0.000000
0.001433 0.001038 0.000000
0.001440 0.001035 0.000000
0.001444 0.001032 0.000000
0.001448 0.001029 0.000000
0.001438 0.001029 0.000000
0.001445 0.001024 0.000000
0.001450 0.001020 0.000000
0.001455 0.001016 0.000000
0.001462 0.001008 0.000000
0.001466 0.001003 0.000000
0.001464 0.000997 0.000000
0.001468 0.000994 0.000000
0.001473 0.000991 0.000000
0.001480 0.000984 0.000000
0.001490 0.000971 0.000000
0.001492 0.000969 0.000000
0.001495 0.000963 0.000000
0.001495 0.000957 0.000000
0.000015 0.000445 0.000000
0.000016 0.000450 0.000000
0.000014 0.000456 0.000000
0.000017 0.000460 0.000000
0.000014 0.000469 0.000000
0.000016 0.000465 0.000000
0.000014 0.000476 0.000000
0.000017 0.000480 0.000000
0.000014 0.000484 0.000000
0.000016 0.000489 0.000000
0.000014 0.000495 0.000000
0.000016 0.000497 0.000000
0.000025 0.000500 0.000000
0.001422 0.001044 0.000000
0.001435 0.001036 0.000000
0.001429 0.001035 0.000000
0.001441 0.001026 0.000000
0.001451 0.001025 0.000000
0.001450 0.001017 0.000000
0.001457 0.001011 0.000000
0.001453 0.001010 0.000000
0.001458 0.001006 0.000000
0.001464 0.000991 0.000000
0.001469 0.001000 0.000000
0.001471 0.000986 0.000000
0.001475 0.000985 0.000000
0.001475 0.000979 0.000000
0.001479 0.000978 0.000000
0.001482 0.000971 0.000000
0.001486 0.000969 0.000000
0.001487 0.000964 0.000000
0.001493 0.000955 0.000000
0.000019 0.000445 0.000000
0.000021 0.000450 0.000000
0.000018 0.000455 0.000000
0.000022 0.000459 0.000000
0.000019 0.000469 0.000000
0.000024 0.000468 0.000000
0.000018 0.000475 0.000000
0.000022 0.000479 0.000000
0.000019 0.000486 0.000000
0.000021 0.000491 0.000000
0.000020 0.000497 0.000000
0.000022 0.000499 0.000000
0.000039 0.000500 0.000000
0.001415 0.001034 0.000000
0.001424 0.001038 0.000000
0.001430 0.001029 0.000000
0.001435 0.001032 0.000000
0.001444 0.001019 0.000000
0.001440 0.001015 0.000000
0.001452 0.001006 0.000000
0.001444 0.001013 0.000000
0.001455 0.001001 0.000000
0.001453 0.000992 0.000000
0.001455 0.000987 0.000000
0.001461 0.000986 0.000000
0.001470 0.000980 0.000000
0.001473 0.000970 0.000000
0.001480 0.000969 0.000000
0.001480 0.000964 0.000000
0.001487 0.000958 0.000000
0.001491 0.000960 0.000000
0.001489 0.000952 0.000000
0.000024 0.000445 0.000000
0.000026 0.000450 0.000000
0.000024 0.000455 0.000000
0.000026 0.000461 0.000000
0.000021 0.000464 0.000000
0.000026 0.000472 0.000000
0.000022 0.000476 0.000000
0.000027 0.000481 0.000000
0.000023 0.000485 0.000000
0.000026 0.000488 0.000000
0.000026 0.000492 0.000000
0.000027 0.000500 0.000000
0.001396 0.001069 0.000000
0.001424 0.001041 0.000000
0.001428 0.001039 0.000000
0.001439 0.001021 0.000000
0.001435 0.001024 0.000000
0.001449 0.001013 0.000000
0.001446 0.001007 0.000000
0.001437 0.001018 0.000000
0.001442 0.001003 0.000000
0.001461 0.001002 0.000000
0.001457 0.000996 0.000000
0.001459 0.000997 0.000000
0.001468 0.000989 0.000000
0.001467 0.000982 0.000000
0.001476 0.000973 0.000000
0.001471 0.000975 0.000000
0.001484 0.000962 0.000000
0.001475 0.000965 0.000000
0.001484 0.000956 0.000000
0.001484 0.000949 0.000000
0.000030 0.000445 0.000000
0.000031 0.000450 0.000000
0.000029 0.000455 0.000000
0.000031 0.000459 0.000000
0.000031 0.000464 0.000000
0.000029 0.000468 0.000000
0.000031 0.000472 0.000000
0.000030 0.000477 0.000000
0.000030 0.000486 0.000000
0.000031 0.000491 0.000000
0.000033 0.000497 0.000000
0.000030 0.000499 0.000000
0.000048 0.000500 0.000000
0.001414 0.001042 0.000000
0.001423 0.001028 0.000000
0.001431 0.001025 0.000000
0.001427 0.001025 0.000000
0.001432 0.001019 0.000000
0.001437 0.001007 0.000000
0.001448 0.000995 0.000000
0.001449 0.001003 0.000000
0.001451 0.000997 0.000000
0.001459 0.000990 0.000000
0.001458 0.000977 0.000000
0.001464 0.000981 0.000000
0.001464 0.000976 0.000000
0.001466 0.000967 0.000000
0.001469 0.000972 0.000000
0.001473 0.000959 0.000000
0.001478 0.000959 0.000000
0.001481 0.000953 0.000000
0.001481 0.000947 0.000000
0.000035 0.000445 0.000000
0.000035 0.000450 0.000000
0.000034 0.000457 0.000000
0.000038 0.000454 0.000000
0.000035 0.000467 0.000000
0.000036 0.000472 0.000000
0.000032 0.000479 0.000000
0.000041 0.000479 0.000000
0.000034 0.000483 0.000000
0.000034 0.000488 0.000000
0.000037 0.000491 0.000000
0.000036 0.000498 0.000000
0.001356 0.001084 0.000000
0.001392 0.001072 0.000000
0.001420 0.001033 0.000000
0.001422 0.001022 0.000000
0.001435 0.001012 0.000000
0.001422 0.001012 0.000000
0.001441 0.001009 0.000000
0.001438 0.001004 0.000000
0.001445 0.001000 0.000000
0.001435 0.000994 0.000000
0.001442 0.000985 0.000000
0.001450 0.000979 0.000000
0.001458 0.000981 0.000000
0.001460 0.000971 0.000000
0.001471 0.000964 0.000000
0.001460 0.000958 0.000000
0.001472 0.000952 0.000000
0.001474 0.000956 0.000000
0.001477 0.000950 0.000000
0.001476 0.000944 0.000000
0.000040 0.000445 0.000000
0.000041 0.000450 0.000000
0.000036 0.000462 0.000000
0.000040 0.000458 0.000000
0.000041 0.000463 0.000000
0.000039 0.000468 0.000000
0.000041 0.000473 0.000000
0.000037 0.000477 0.000000
0.000041 0.000487 0.000000
0.000042 0.000491 0.000000
0.000041 0.000497 0.000000
0.000044 0.000498 0.000000
0.001201 0.001068 0.000000
0.001412 0.001049 0.000000
0.001412 0.001038 0.000000
0.001417 0.001020 0.000000
0.001430 0.001015 0.000000
0.001429 0.001011 0.000000
0.001432 0.001008 0.000000
0.001441 0.000997 0.000000
0.001446 0.000988 0.000000
0.001451 0.000988 0.000000
0.001444 0.000993 0.000000
0.001443 0.000975 0.000000
0.001451 0.000970 0.000000
0.001456 0.000966 0.000000
0.001464 0.000972 0.000000
0.001462 0.000965 0.000000
0.001467 0.000961 0.000000
0.001468 0.000956 0.000000
0.001473 0.000948 0.000000
0.001472 0.000941 0.000000
0.000044 0.000445 0.000000
0.000046 0.000450 0.000000
0.000045 0.000455 0.000000
0.000046 0.000461 0.000000
0.000044 0.000467 0.000000
0.000047 0.000474 0.000000
0.000045 0.000478 0.000000
0.000040 0.000483 0.000000
0.000052 0.000485 0.000000
0.000045 0.000483 0.000000
0.000048 0.000493 0.000000
0.000050 0.000498 0.000000
0.001208 0.001072 0.000000
0.001410 0.001059 0.000000
0.001425 0.001032 0.000000
0.001427 0.001018 0.000000
0.001423 0.001016 0.000000
0.001434 0.001001 0.000000
0.001429 0.001001 0.000000
0.001436 0.000997 0.000000
0.001435 0.000987 0.000000
0.001447 0.000983 0.000000
0.001453 0.000984 0.000000
0.001455 0.000971 0.000000
0.001449 0.000975 0.000000
0.001455 0.000965 0.000000
0.001464 0.000961 0.000000
0.001463 0.000954 0.000000
0.001463 0.000951 0.000000
0.001467 0.000949 0.000000
0.001469 0.000945 0.000000
0.001468 0.000939 0.000000
0.000049 0.000445 0.000000
0.000053 0.000450 0.000000
0.000049 0.000454 0.000000
0.000053 0.000455 0.000000
0.000048 0.000465 0.000000
0.000048 0.000471 0.000000
0.000053 0.000468 0.000000
0.000051 0.000478 0.000000
0.000047 0.000488 0.000000
0.000052 0.000491 0.000000
0.000057 0.000492 0.000000
0.000053 0.000498 0.000000
0.001300 0.001091 0.000000
0.001400 0.001058 0.000000
0.001408 0.001046 0.000000
0.001418 0.001023 0.000000
0.001424 0.001008 0.000000
0.001428 0.001005 0.000000
0.001422 0.001004 0.000000
0.001427 0.000998 0.000000
0.001431 0.000988 0.000000
0.001440 0.000990 0.000000
0.001435 0.000985 0.000000
0.001444 0.000980 0.000000
0.001442 0.000968 0.000000
0.001454 0.000977 0.000000
0.001450 0.000960 0.000000
0.001450 0.000953 0.000000
0.001455 0.000959 0.000000
0.001459 0.000948 0.000000
0.001464 0.000943 0.000000
0.001464 0.000936 0.000000
0.000053 0.000445 0.000000
0.000058 0.000450 0.000000
0.000055 0.000462 0.000000
0.000050 0.000460 0.000000
0.000060 0.000466 0.000000
0.000054 0.000473 0.000000
0.000057 0.000476 0.000000
0.000057 0.000480 0.000000
0.000052 0.000483 0.000000
0.000057 0.000486 0.000000
0.000056 0.000497 0.000000
0.000059 0.000496 0.000000
0.001323 0.001089 0.000000
0.001409 0.001060 0.000000
[...]
POINT_DATA 11907
SCALARS density float 1
LOOKUP_TABLE default
4427.712906
4430.069517
4425.380413
4429.294189
4431.732494
4426.788348
4437.117846
4428.454294
4431.908950
4420.411146
4429.661577
4405.203431
4431.331481
4417.531138
4415.838826
4443.443046
4440.868842
4436.598996
4452.718638
4454.465755
4427.817039
4412.346988
4397.625792
4448.104871
4424.451016
4435.827002
4450.384830
4419.370033
4438.488436
4452.058652
4429.188227
4402.317960
4431.854182
4431.119672
4429.973464
4425.800861
4431.511782
4420.128963
4424.358997
4420.101951
4422.343772
4426.946649
4449.766008
4408.421664
4411.970399
4420.182313
4423.807925
4412.241719
4425.372923
4437.036117
4450.324472
4473.095273
4434.383578
4418.263256
4420.938366
4397.150229
4435.663459
4389.416318
4435.653748
4457.900086
4429.823622
4431.851060
4414.368951
4396.838807
4421.009795
4426.276290
4433.174448
4421.263062
4431.807414
4425.557545
4456.542407
4399.735454
4470.192988
4383.980734
4448.357999
4403.390733
4469.046899
4446.099070
4432.910707
4397.075148
4417.277747
4411.474251
4469.365038
4454.659244
4437.366347
4369.000125
4427.072880
4435.973704
4398.212894
4457.769473
4422.210465
4374.016086
4414.626482
4425.827113
4445.554185
4414.811868
4424.724858
4437.531020
4444.223921
4417.813726
4415.741734
4450.009134
4448.745340
4389.654321
4463.424214
4386.797540
4509.327045
4406.152312
4434.410928
4387.533731
4410.763438
4466.628126
4451.247549
4435.530980
4452.740867
4374.500390
4448.455351
4426.589220
4425.891583
4431.457559
4397.671823
4482.293868
4427.988491
4493.097905
4434.943372
4377.120856
4493.456646
4433.740096
4436.496438
4421.200908
4441.447544
4430.724343
4407.429748
4433.040241
4436.779857
4434.040842
4479.225077
4374.149455
4460.905466
4433.020338
4417.928421
4433.436929
4465.120500
4382.055822
4468.988656
4393.199850
4453.739800
4440.544728
4427.957427
4384.768924
4419.295944
4446.305142
4428.920587
4429.415310
4457.241846
4472.702197
4427.035154
4409.848718
4390.084785
4424.078006
4432.933850
4429.790705
4439.610452
4414.236765
4439.230537
4420.377988
4453.306353
4383.853303
4419.456346
4459.868046
4426.811586
4422.643914
4436.893702
4434.023128
4367.981442
4434.997745
4395.969629
4461.451441
4366.400385
4474.166426
4468.092591
4454.383850
4455.445127
4445.697637
4438.643365
4442.061120
4372.050261
4417.976856
4420.458548
4409.331642
4462.761061
4426.481606
4422.712841
4431.248992
4415.853914
4440.007910
4432.299130
4449.290421
4398.323747
4451.325170
4447.967145
4409.045706
4450.604095
4417.482252
4415.742617
4447.472936
4459.052637
4459.747975
4415.821347
4425.068048
4434.594342
4403.102377
4451.499138
4446.924254
4412.692332
4446.584670
4466.004733
4385.171412
4407.623175
4451.726960
4453.871683
4415.495313
4399.495573
4448.252070
4426.961331
4435.642623
4441.072492
4425.234807
4427.896730
4437.102770
4441.938932
4431.677817
4399.421649
4430.357347
4418.741538
4444.886315
4415.497083
4424.333572
4388.376219
4411.970945
4403.638310
4472.506117
4449.146995
4429.974285
4424.181735
4449.454713
4399.917335
4436.995635
4391.995498
4456.346514
4412.519033
4381.608214
4451.599254
4422.700009
4416.373942
4415.750015
4431.175081
4427.702777
4414.121936
4444.277025
4424.357161
4439.724438
4425.852924
4428.281684
4450.319787
4426.988738
4435.605942
4421.436484
4435.816345
4453.857899
4392.697456
4437.702696
4429.469943
4461.916795
4447.017669
4406.987850
4454.073888
4408.918640
4457.046806
4412.312689
4400.864328
4435.590868
4422.767694
4417.732481
4472.115212
4363.295215
4443.065761
4428.745909
4430.674372
4420.078061
4417.914118
4452.074973
4420.744590
4440.004861
4436.138701
4433.436381
4456.399355
4414.503230
4473.526597
4432.770510
4435.222270
4438.583683
4411.669291
4446.087406
4383.705457
4388.884613
4460.650296
4478.356666
4454.110906
4433.728053
4421.629984
4413.071065
4435.047951
4445.678930
4448.003565
4458.732661
4450.982701
4429.443376
4411.500414
4450.086858
4426.943294
4411.090881
4460.452752
4419.031280
4430.895112
4453.129622
4400.370106
4383.837802
4392.133213
4418.854488
4517.471762
4411.851539
4437.336086
4431.685637
4406.281735
4457.571288
4359.991028
4419.814225
4437.281066
4418.759872
4401.826341
4401.440141
4463.880690
4426.936599
4405.296555
4435.606786
4421.606685
4417.347777
4428.805229
4415.002100
4417.928850
4422.801748
4438.426345
4426.302277
4476.366307
4405.260935
4414.847694
4446.226688
4426.736721
4420.970668
4473.336759
4355.084527
4416.530215
4402.146311
4435.524558
4428.342462
4439.684530
4413.088533
4428.328013
4460.859102
4379.085822
4417.846146
4448.244432
4416.287275
4433.233648
4446.903810
4463.542595
4424.238287
4478.285713
4405.734209
4440.877801
4430.321459
4442.603765
4418.960784
4420.369561
4406.299705
4452.372276
4430.518917
4387.538054
4431.757592
4432.307041
4382.158511
4445.745967
4425.318992
4444.574753
4436.090509
4423.373199
4431.923018
4423.238737
4366.096473
4387.928732
4445.635954
4448.658469
4475.174526
4451.072167
4453.263809
4426.934722
4424.574718
4440.464151
4447.105074
4437.433784
4410.724186
4432.534397
4409.408449
4441.248178
4438.116164
4443.268279
4435.958871
4431.699848
4442.899862
4448.195223
4420.481941
4402.870734
4465.177097
4473.320492
4404.502025
4426.699615
4439.420690
4416.904012
4428.875092
4394.176941
4368.666194
4423.130030
4387.663946
4448.895866
4400.841748
4431.623162
4415.523217
4469.928527
4417.247120
4442.427778
4456.630320
4413.740122
4412.101238
4443.239004
4445.200337
4415.247738
4421.091642
4416.788285
4443.281527
4435.763901
4444.174894
4421.880911
4399.971912
4399.229342
4437.890769
4393.846937
4447.710394
4435.876739
4451.670161
4425.943123
4440.777136
4421.097068
4467.123084
4441.176650
4427.307991
4429.393267
4447.334240
4397.970658
4428.030440
4410.210816
4421.833835
4445.408897
4426.341730
4434.351936
4417.779585
4441.549564
4410.055459
4443.878421
4434.519050
4433.679896
4442.335244
4416.676247
4440.498985
4407.946954
4462.339104
4448.104356
4431.563209
4436.041363
4387.158253
4396.221526
4449.631349
4426.220422
4428.413154
4431.970579
4451.038077
4448.191583
4405.911651
4400.626989
4433.042775
4381.243909
4401.986726
4423.448140
4422.994719
4401.647008
4430.554717
4419.093626
4437.868322
4445.033016
4401.440226
4440.529641
4421.080717
4423.258370
4433.932500
4437.048078
4406.181106
4443.846650
4402.168500
4442.905381
4447.814673
4418.886125
4378.767452
4418.874982
4426.681989
4424.308712
4424.446288
4433.895599
4441.559169
4476.930185
4430.452135
4418.599838
4445.859636
4435.032224
4446.910667
4389.471527
4489.324236
4411.464546
4440.330425
4450.238768
4402.404375
4425.447987
4448.964248
4425.213865
4442.133451
4435.413560
4421.887851
4440.310384
4419.132977
4459.071556
4403.096238
4422.914729
4447.667633
4382.677067
4501.931999
4437.885111
4449.474377
4427.044426
4428.159679
4444.300601
4438.609810
4471.412217
4423.042608
4510.430924
4489.552678
4428.046375
4450.157688
4419.767989
4408.441928
4447.158852
4389.652070
4412.400210
4451.288443
4448.943471
4426.127247
4428.204689
4425.523266
4412.586272
4421.391398
4444.642548
4436.722395
4447.397403
4447.130740
4458.705139
4463.006850
4449.389387
4436.694762
4391.382925
4424.219234
4419.259442
4424.977333
4429.244315
4451.094927
4421.240221
4448.064065
4431.979033
4433.222431
4409.713563
4452.060622
4460.482715
4379.933195
4455.748702
4432.937863
4442.944652
4422.612813
4418.419957
4416.733020
4432.230351
4429.606128
4452.272147
4420.193853
4425.027067
4427.617656
4412.024412
4390.716094
4436.038159
4432.702601
4440.698016
4425.334771
4429.376167
4430.766668
4418.223615
4443.639866
4444.002700
4480.507242
4428.789908
4471.571172
4451.801717
4432.255051
4476.132067
4430.541202
4387.153304
4392.746589
4396.383504
4388.332708
4443.046323
4431.905757
4435.410783
4446.961593
4439.418369
4437.118506
4434.300641
4439.672075
4436.691510
4422.596347
4435.495044
4459.470123
4390.234815
4406.947414
4466.970304
4460.746262
4409.293402
4493.313324
4425.175495
4407.970008
4399.433805
4476.054788
4440.456690
4429.607693
4350.453314
4439.980276
4414.198748
4437.974885
4473.727604
4435.102768
4465.285877
4462.646074
4430.195280
4383.966358
4444.758243
4401.909001
4415.942641
4429.636506
4442.377426
4428.648257
4446.575874
4430.555267
4427.193582
4406.494781
4425.408715
4454.464981
4439.932429
4376.101121
4439.103197
4433.173463
4443.474719
4419.095903
4436.594867
4440.107251
4445.722413
4433.092914
4454.886017
4427.279564
4428.449074
4346.874920
4468.790182
4445.303137
4438.759683
4437.759850
4409.258888
4446.893338
4428.691149
4435.196005
4448.787936
4432.064767
4405.280997
4440.175066
4401.921023
4422.706583
4460.041660
4420.596191
4439.791516
4472.350360
4417.389312
4416.458190
4387.350019
4461.277743
4432.380824
4469.499030
4401.680323
4444.799296
4434.963283
4435.722142
4428.310170
4439.602426
4438.756777
4404.179513
4350.335012
4489.677829
4429.451027
4398.911363
4439.472370
4442.411692
4443.191808
4421.315836
4429.495398
4422.575458
4439.346044
4425.071381
4428.919395
4423.331381
4411.441638
4433.035080
4427.046316
4406.578545
4403.452483
4443.301322
4443.181055
4429.649327
4463.416256
4421.855574
4432.460026
4398.379762
4364.902681
4390.536901
4425.338376
4379.437283
4366.565770
4442.605795
4435.111620
4378.482428
4441.750380
4436.809127
4421.851371
4409.290173
4415.815987
4451.376285
4442.455708
4428.392444
4428.826431
4430.460997
4430.742590
4430.923397
4430.782026
4430.247494
4429.826869
4429.395668
4429.525926
4430.141330
4431.316301
4431.820091
4431.460695
4431.082247
4430.550515
4429.524079
4430.210332
4429.162134
4428.794484
4429.452252
4430.571660
4432.072869
4433.077161
4433.389075
4432.063500
4429.572402
4428.139617
4428.819548
4430.235624
4430.623098
4429.641934
4430.155673
4431.331875
4431.985338
4431.607784
4430.218906
4428.819294
4427.451173
4427.327837
4428.548186
4431.763721
4433.371516
4431.922382
4430.176230
4428.842874
4430.200182
4430.017167
4428.818423
4428.254194
4428.616037
4430.270756
4431.586692
4433.471458
4433.374843
4432.323228
4428.828446
4426.783877
4427.169499
4428.829338
4429.112200
4429.998096
4429.852177
4431.305548
4431.987406
4431.531965
4430.051808
4428.512076
4426.742552
4426.640092
4427.882867
4431.114497
4433.194507
4432.158225
4429.609876
4429.649086
4430.059500
4429.679212
4429.002972
4427.433696
4428.877895
4429.392405
4431.830647
4432.506870
4433.871333
4430.978676
4429.548424
4425.585860
4428.281692
4428.551569
4429.834380
4429.804466
4429.634246
4431.290431
4431.693920
4431.491258
4429.653603
4428.330648
4426.326983
4426.342406
4427.662816
4430.532398
4432.979136
4431.667597
4429.116379
4429.307535
4429.848445
4429.701630
4428.650176
4427.570146
4428.230839
4429.635131
4431.061938
4432.803115
4432.985673
4431.356959
4428.751678
4425.648177
4427.112935
4428.271016
4428.838842
4429.245393
4429.785405
4430.800430
4431.667389
4431.280784
4429.425005
4428.174277
4425.931845
4426.354075
4427.089133
4430.543524
4432.660660
4431.872132
4429.608517
4431.017331
4429.671904
4429.547885
4428.501672
4427.344631
4428.098396
4429.323364
4430.956497
4432.427781
4432.755422
4430.951439
4428.699038
4425.349463
4427.732702
4427.717482
4430.030917
4429.159627
4429.624434
4430.740422
4431.527149
4430.874152
4429.537796
4427.488289
4426.194427
4425.913234
4427.046534
4429.944874
4432.527613
4430.878028
4428.201142
4425.336661
4429.408982
4429.610602
4428.105750
4427.241638
4427.805595
4429.036983
4430.811946
4432.223771
4432.383392
4431.024274
4427.955241
4425.743270
4425.824561
4427.848281
4429.402480
4428.969745
4429.431620
4430.594752
4431.328649
4430.613459
4429.359243
4427.354966
4425.903428
4426.035373
4426.689058
4429.909645
4432.548596
4432.032146
4429.120545
4428.476190
4466.009448
4436.162119
4422.527408
4436.161429
4437.095727
4468.008221
4431.252575
4410.192989
4403.317962
4458.268414
4476.491707
4400.228360
4468.351806
4477.679759
4449.980631
4423.317995
4429.116858
4429.360530
4428.170930
4426.633994
4427.932840
4428.584750
4430.727151
4431.967388
4432.089547
4430.511022
4428.868177
4424.911302
4428.419283
4429.663940
4433.102678
4423.099709
4406.396220
4426.528481
4420.237434
4426.421515
4440.677430
4436.196460
4443.235567
4400.113092
4394.746129
4432.028695
4417.483682
4438.355417
4344.021095
4473.976949
4409.435597
4428.549621
4429.270452
4430.375075
4431.029207
4430.613562
4428.804467
4427.698741
4425.147900
4426.583935
4426.294113
4429.396081
4433.108927
4431.056218
4429.317372
4430.863312
4441.383471
4437.238849
4394.689120
4432.109151
4409.304644
4447.175582
4412.437230
4426.165894
4421.123073
4442.059736
4458.054431
4416.555665
4442.447154
4460.126652
4422.884742
4412.868441
4428.901432
4429.350415
4427.860447
4426.657948
4427.447618
4428.976316
4429.923015
4432.408805
4430.745600
4430.943736
4428.415016
4424.208230
4427.685591
4427.134194
4428.239953
4417.421396
4409.148768
4429.603678
4401.460961
4404.838528
4448.572992
4438.853306
4418.290458
4429.955554
4441.492003
4417.091666
4421.787039
4386.951575
4406.749910
4437.691957
4452.475259
4428.435179
4429.379947
4429.959778
4431.099464
4430.310311
4428.950136
4427.302108
4425.254968
4426.246029
4425.933803
4428.814524
4433.074173
4429.271580
4427.755934
4428.064508
4431.269507
4440.293296
4438.140963
4457.455659
4440.179341
4437.715257
4437.748084
4480.622369
4422.533387
4435.621861
4402.921344
4432.227024
4466.774090
4419.340005
4435.890252
4418.765051
4428.450575
4429.256896
4427.699480
4426.658463
4427.233403
4428.996393
4429.909877
4432.017139
4430.565985
4430.549958
4428.068591
4424.075890
4427.146783
4426.943450
4425.804303
4420.488126
4438.035065
4431.039898
4401.304693
4474.525687
4397.835165
4420.435433
4454.210306
4467.925613
4409.609063
4424.694698
4451.383021
4447.380757
4405.642017
4453.413213
4418.768821
4428.458089
4429.473722
4429.677855
4431.115530
4430.043039
4429.136973
4426.768534
4425.871482
4425.855439
4426.109976
4428.354076
4433.038738
4428.707163
4428.671038
4427.727367
4424.233697
4408.437639
4452.797171
4429.554026
4341.556981
4437.335051
4419.993443
4422.202106
4422.160565
4434.457077
4414.105554
4458.317576
4415.565362
4449.884382
4459.276124
4421.249059
4428.220882
4429.226598
4427.438712
4426.706724
4426.874829
4428.905038
4429.735536
4431.930620
4430.344559
4430.619641
4427.985912
4424.463617
4427.287946
4427.432046
4426.525487
4428.581784
4398.402881
4380.582864
4380.253166
4388.651106
4484.115194
4437.476484
4422.542764
4419.246293
4439.511914
4444.586721
4395.161268
4417.914049
4381.859462
4460.903752
4410.124658
4428.248471
4429.179389
4429.752263
4430.603578
4430.301969
4428.474967
4427.134106
4425.612198
4426.675120
4425.618376
4428.784371
4432.963830
4429.900187
4428.880010
4429.074704
4437.539597
4443.041149
4390.909768
4410.325226
4442.086177
4435.600792
4435.163271
4426.973870
4476.766844
4466.078198
4385.911451
4403.128991
4436.301572
4388.543765
4441.868309
4404.296485
4428.191790
4428.804979
4427.725357
4426.248796
4427.166729
4428.360142
4429.899364
4431.512049
4430.513165
4430.242146
4428.285796
4424.522757
4428.012214
4427.062016
4428.712318
4449.198801
4434.916664
4426.773317
4442.802004
4376.851783
4418.978325
4428.240797
4441.495405
4383.789673
4423.314503
4436.641087
4482.786067
4403.825660
4388.537799
4423.400643
4444.996433
4428.109638
4429.071350
4429.569672
4430.489241
4430.236990
4428.292378
4427.051007
4425.927100
4426.865919
4425.429646
4428.414626
4432.908419
4429.838761
4428.970484
4427.776103
4422.790496
4447.023933
4403.015893
4452.853869
4443.900456
4432.602160
4450.102725
4473.913367
4419.628885
4430.338308
4413.676889
4426.370452
4477.632474
4408.509465
4466.473025
4407.729798
4428.046393
4428.983627
4427.365314
4426.726651
4426.541312
4428.876800
4429.215255
4431.627045
4430.134229
4430.219046
4427.469363
4424.580860
4426.044717
4426.369202
4424.900220
4434.755327
4483.836525
4444.119016
4391.524022
4416.938256
4421.219419
4445.771393
4413.638259
4468.838300
4448.011921
4406.683180
4425.065274
4445.172254
4411.170176
4396.596456
4415.445235
4427.961723
4429.350967
4429.036521
4430.804489
4430.099668
4428.322011
4426.927164
4426.519402
4426.453057
4425.558538
4427.624868
4432.364602
4428.258901
4427.542286
4425.267279
4423.397057
4444.126721
4442.641906
4458.541611
4424.817605
4432.805529
4447.881166
4430.413795
4436.689670
4441.281923
4420.623281
4413.625955
4418.269490
4374.838126
4485.344538
4448.039832
4427.863825
4429.127358
4427.238697
4426.932688
4426.326710
4429.175747
4428.946132
4431.592672
4429.826835
4430.016920
4427.125307
4424.759106
4425.676671
4425.653122
4426.671564
4405.126441
4446.291150
4404.604510
4426.703576
4449.270019
4430.802359
4430.701622
4426.476766
4410.294527
4450.985182
4430.077116
4421.517197
4395.218430
4426.771724
4381.795110
4447.272558
4427.830248
4429.430603
4428.859283
4431.029869
4429.779396
4428.373935
4426.736282
4427.079518
4426.346247
4425.937672
4427.344468
4431.931014
4428.570107
4427.120543
4425.503860
4429.400243
4419.807538
4414.304957
4460.513598
4391.513320
4411.812404
4424.447675
4445.184156
4431.304855
4430.052899
4439.029051
4409.292402
4434.122310
4462.092651
4421.577118
4400.876142
4428.074352
4429.023229
4427.479730
4426.657952
4426.746806
4428.545169
4429.146297
4431.789631
4429.672446
4430.052606
4427.414019
4425.339554
4425.571593
4425.916411
4424.667604
4424.901434
4415.348348
4433.701660
4412.491286
4408.938978
4440.416968
4419.107398
4427.692268
4418.091671
4451.547753
4501.446191
4389.793272
4457.007595
4437.899834
4462.991810
4426.025719
4428.024780
4429.175554
4429.205636
4430.736859
4429.735222
4428.272359
4427.087339
4426.854393
4427.484933
4425.794891
4427.163305
4432.306079
4429.248882
4427.602156
4426.241989
4434.083121
4419.864457
4447.871931
4438.328707
4388.796433
4432.222739
4450.726815
4431.641763
4453.051317
4419.576398
4485.107962
4446.025881
4427.097577
4431.654082
4460.986771
4424.114508
4428.419727
4429.107814
4427.530750
4426.812544
4426.691157
4428.438572
4429.147009
4431.758655
4429.960123
4429.637097
4428.208631
4425.100568
4426.676263
4425.454991
4426.305775
4441.514653
4449.666218
4434.977431
4451.361068
4386.561717
4417.983990
4442.445067
4381.605586
4452.257878
4442.015898
4443.856083
4457.841768
4464.957767
4430.188182
4431.060031
4408.736146
4428.201590
4428.919801
4429.403593
4430.280857
4430.440794
4427.519484
4427.832376
4426.784835
4428.073232
4425.394407
4427.437510
4432.800994
4428.308892
4427.073389
4426.773617
4446.116463
4450.091281
4405.730666
4463.823163
4383.153411
4436.062727
4438.833152
4422.085890
4467.340991
4446.427524
4463.054648
4399.400889
4410.472231
4466.074672
4382.467824
4426.633171
4428.308438
4429.481879
4427.413204
4427.265091
4426.227864
4429.537287
4428.636978
4431.685376
4430.653566
4429.920085
4427.568083
4425.960750
4425.551109
4425.107079
4424.825496
4432.196481
4434.165980
4413.575624
4375.930614
4427.896693
4444.277882
4441.788639
4422.639966
4387.162022
4446.848784
4399.706742
4417.458046
4429.457547
4395.567124
4390.455929
4447.985393
4428.223860
4429.487476
4428.422265
4431.463696
4429.979371
4428.531070
4427.570362
4428.735992
4426.929096
4425.797255
4428.313733
4431.498775
4428.095434
4427.834901
4426.387784
4419.711134
4399.010738
4415.206439
4428.518239
4456.144262
4421.694069
4434.356927
4494.489939
4405.282969
4407.312043
4429.788586
4411.644817
4481.091870
4427.946107
4558.470175
4413.724128
4428.359787
4429.325312
4428.057907
4426.958613
4427.014791
4429.073749
4428.591931
4431.980652
4430.534142
4429.522596
4427.476844
4427.257080
4426.375016
4426.229399
4423.268305
4445.825994
4425.927134
4447.022588
4431.918469
4462.408555
4462.842061
4441.060739
4453.733611
4478.793485
4431.176678
4449.486070
4441.889636
4446.307047
4438.228818
4278.945777
4428.287846
4428.666017
4429.635398
4428.544858
4431.356396
4429.657172
4428.362593
4427.098876
4429.018438
4426.483688
4426.957573
4428.289172
4430.830573
4427.342893
4427.801468
4425.055912
4422.586101
4381.006147
4381.049445
4407.037682
4444.107436
4412.861661
4435.698749
4442.417449
4430.603354
4435.126131
4396.074276
4443.716252
4441.977645
4418.375202
4384.395117
4405.228429