# vtk DataFile Version 2.0
mfree iwf
ASCII

DATASET UNSTRUCTURED_GRID
POINTS 10674 float
0.000000 0.000445 0.000000
0.000000 0.000450 0.000000
0.000000 0.000455 0.000000
0.000000 0.000460 0.000000
0.000000 0.000465 0.000000
0.000000 0.000470 0.000000
0.000000 0.000475 0.000000
0.000000 0.000480 0.000000
0.000000 0.000485 0.000000
0.000000 0.000490 0.000000
-0.000000 0.000496 0.000000
0.000002 0.000500 0.000000
0.000753 0.000901 0.000000
0.000762 0.000903 0.000000
0.000809 0.000905 0.000000
0.000814 0.000904 0.000000
0.000814 0.000904 0.000000
0.000821 0.000904 0.000000
0.000828 0.000902 0.000000
0.000824 0.000903 0.000000
0.000838 0.000902 0.000000
0.000865 0.000900 0.000000
0.000871 0.000897 0.000000
0.000875 0.000895 0.000000
0.000880 0.000893 0.000000
0.000884 0.000891 0.000000
0.000889 0.000889 0.000000
0.000893 0.000886 0.000000
0.000897 0.000884 0.000000
0.000903 0.000881 0.000000
0.000908 0.000879 0.000000
0.000931 0.000872 0.000000
0.000005 0.000445 0.000000
0.000005 0.000450 0.000000
0.000005 0.000455 0.000000
0.000005 0.000460 0.000000
0.000005 0.000465 0.000000
0.000005 0.000470 0.000000
0.000005 0.000475 0.000000
0.000005 0.000480 0.000000
0.000005 0.000485 0.000000
0.000006 0.000490 0.000000
0.000003 0.000496 0.000000
0.000006 0.000499 0.000000
0.000803 0.000903 0.000000
0.000811 0.000897 0.000000
0.000845 0.000900 0.000000
0.000852 0.000899 0.000000
0.000857 0.000899 0.000000
0.000861 0.000898 0.000000
0.000863 0.000897 0.000000
0.000867 0.000894 0.000000
0.000871 0.000892 0.000000
0.000877 0.000889 0.000000
0.000883 0.000886 0.000000
0.000889 0.000884 0.000000
0.000894 0.000880 0.000000
0.000903 0.000877 0.000000
0.000906 0.000874 0.000000
0.000912 0.000872 0.000000
0.000922 0.000872 0.000000
0.000925 0.000871 0.000000
0.000919 0.000873 0.000000
0.000929 0.000870 0.000000
0.000010 0.000445 0.000000
0.000011 0.000450 0.000000
0.000009 0.000456 0.000000
0.000011 0.000459 0.000000
0.000010 0.000465 0.000000
0.000011 0.000471 0.000000
0.000009 0.000475 0.000000
0.000011 0.000479 0.000000
0.000009 0.000487 0.000000
0.000012 0.000489 0.000000
0.000009 0.000497 0.000000
0.000011 0.000498 0.000000
0.000805 0.000899 0.000000
0.000815 0.000895 0.000000
0.000831 0.000898 0.000000
0.000838 0.000899 0.000000
0.000843 0.000898 0.000000
0.000848 0.000898 0.000000
0.000841 0.000892 0.000000
0.000851 0.000892 0.000000
0.000856 0.000892 0.000000
0.000862 0.000891 0.000000
0.000872 0.000888 0.000000
0.000877 0.000885 0.000000
0.000878 0.000882 0.000000
0.000883 0.000879 0.000000
0.000889 0.000879 0.000000
0.000900 0.000876 0.000000
0.000915 0.000871 0.000000
0.000917 0.000871 0.000000
0.000924 0.000866 0.000000
0.000927 0.000862 0.000000
0.000015 0.000445 0.000000
0.000016 0.000450 0.000000
0.000014 0.000455 0.000000
0.000017 0.000460 0.000000
0.000013 0.000466 0.000000
0.000016 0.000467 0.000000
0.000014 0.000476 0.000000
0.000017 0.000480 0.000000
0.000014 0.000484 0.000000
0.000016 0.000489 0.000000
0.000014 0.000495 0.000000
0.000016 0.000497 0.000000
0.000025 0.000500 0.000000
0.000818 0.000897 0.000000
0.000833 0.000897 0.000000
0.000831 0.000892 0.000000
0.000846 0.000892 0.000000
0.000853 0.000897 0.000000
0.000859 0.000888 0.000000
0.000864 0.000887 0.000000
0.000862 0.000882 0.000000
0.000869 0.000885 0.000000
0.000882 0.000874 0.000000
0.000884 0.000883 0.000000
0.000891 0.000873 0.000000
0.000896 0.000875 0.000000
0.000897 0.000871 0.000000
0.000903 0.000871 0.000000
0.000908 0.000867 0.000000
0.000913 0.000866 0.000000
0.000917 0.000864 0.000000
0.000926 0.000859 0.000000
0.000020 0.000445 0.000000
0.000021 0.000450 0.000000
0.000018 0.000455 0.000000
0.000022 0.000459 0.000000
0.000019 0.000470 0.000000
0.000025 0.000467 0.000000
0.000018 0.000475 0.000000
0.000022 0.000478 0.000000
0.000019 0.000486 0.000000
0.000021 0.000490 0.000000
0.000021 0.000497 0.000000
0.000022 0.000499 0.000000
0.000039 0.000500 0.000000
0.000819 0.000886 0.000000
0.000823 0.000893 0.000000
0.000832 0.000888 0.000000
0.000837 0.000895 0.000000
0.000848 0.000887 0.000000
0.000852 0.000882 0.000000
0.000867 0.000883 0.000000
0.000857 0.000884 0.000000
0.000869 0.000874 0.000000
0.000873 0.000870 0.000000
0.000877 0.000867 0.000000
0.000883 0.000869 0.000000
0.000893 0.000868 0.000000
0.000901 0.000861 0.000000
0.000906 0.000863 0.000000
0.000910 0.000861 0.000000
0.000918 0.000859 0.000000
0.000922 0.000862 0.000000
0.000924 0.000855 0.000000
0.000024 0.000445 0.000000
0.000026 0.000450 0.000000
0.000024 0.000455 0.000000
0.000026 0.000462 0.000000
0.000021 0.000463 0.000000
0.000024 0.000471 0.000000
0.000024 0.000477 0.000000
0.000026 0.000481 0.000000
0.000023 0.000485 0.000000
0.000026 0.000488 0.000000
0.000026 0.000493 0.000000
0.000027 0.000500 0.000000
0.000782 0.000904 0.000000
0.000822 0.000895 0.000000
0.000826 0.000896 0.000000
0.000842 0.000888 0.000000
0.000839 0.000884 0.000000
0.000853 0.000887 0.000000
0.000857 0.000878 0.000000
0.000847 0.000883 0.000000
0.000859 0.000873 0.000000
0.000871 0.000879 0.000000
0.000876 0.000875 0.000000
0.000875 0.000878 0.000000
0.000887 0.000875 0.000000
0.000889 0.000869 0.000000
0.000903 0.000866 0.000000
0.000897 0.000865 0.000000
0.000914 0.000860 0.000000
0.000907 0.000857 0.000000
0.000918 0.000854 0.000000
0.000922 0.000850 0.000000
0.000030 0.000445 0.000000
0.000031 0.000450 0.000000
0.000029 0.000455 0.000000
0.000030 0.000459 0.000000
0.000032 0.000464 0.000000
0.000029 0.000470 0.000000
0.000032 0.000472 0.000000
0.000030 0.000477 0.000000
0.000031 0.000486 0.000000
0.000031 0.000492 0.000000
0.000033 0.000497 0.000000
0.000030 0.000499 0.000000
0.000049 0.000500 0.000000
0.000812 0.000891 0.000000
0.000829 0.000884 0.000000
0.000836 0.000888 0.000000
0.000834 0.000883 0.000000
0.000843 0.000882 0.000000
0.000853 0.000875 0.000000
0.000865 0.000875 0.000000
0.000862 0.000877 0.000000
0.000868 0.000869 0.000000
0.000879 0.000871 0.000000
0.000886 0.000860 0.000000
0.000886 0.000865 0.000000
0.000891 0.000862 0.000000
0.000898 0.000856 0.000000
0.000896 0.000861 0.000000
0.000906 0.000853 0.000000
0.000911 0.000854 0.000000
0.000916 0.000851 0.000000
0.000920 0.000846 0.000000
0.000035 0.000445 0.000000
0.000035 0.000450 0.000000
0.000034 0.000456 0.000000
0.000039 0.000454 0.000000
0.000034 0.000467 0.000000
0.000037 0.000472 0.000000
0.000032 0.000479 0.000000
0.000042 0.000479 0.000000
0.000035 0.000483 0.000000
0.000034 0.000488 0.000000
0.000037 0.000491 0.000000
0.000036 0.000498 0.000000
0.000741 0.000896 0.000000
0.000778 0.000904 0.000000
0.000823 0.000885 0.000000
0.000830 0.000879 0.000000
0.000845 0.000876 0.000000
0.000838 0.000871 0.000000
0.000850 0.000877 0.000000
0.000853 0.000870 0.000000
0.000863 0.000870 0.000000
0.000861 0.000864 0.000000
0.000869 0.000859 0.000000
0.000878 0.000859 0.000000
0.000882 0.000863 0.000000
0.000887 0.000855 0.000000
0.000902 0.000855 0.000000
0.000898 0.000843 0.000000
0.000907 0.000848 0.000000
0.000911 0.000848 0.000000
0.000915 0.000846 0.000000
0.000918 0.000841 0.000000
0.000040 0.000445 0.000000
0.000041 0.000450 0.000000
0.000037 0.000462 0.000000
0.000040 0.000458 0.000000
0.000042 0.000462 0.000000
0.000040 0.000468 0.000000
0.000041 0.000473 0.000000
0.000036 0.000477 0.000000
0.000041 0.000488 0.000000
0.000042 0.000491 0.000000
0.000041 0.000497 0.000000
0.000044 0.000498 0.000000
0.000619 0.000797 0.000000
0.000807 0.000896 0.000000
0.000814 0.000886 0.000000
0.000827 0.000873 0.000000
0.000840 0.000878 0.000000
0.000848 0.000871 0.000000
0.000843 0.000873 0.000000
0.000858 0.000868 0.000000
0.000867 0.000866 0.000000
0.000872 0.000863 0.000000
0.000864 0.000861 0.000000
0.000875 0.000855 0.000000
0.000883 0.000856 0.000000
0.000891 0.000849 0.000000
0.000892 0.000857 0.000000
0.000895 0.000852 0.000000
0.000900 0.000850 0.000000
0.000906 0.000844 0.000000
0.000912 0.000842 0.000000
0.000916 0.000837 0.000000
0.000044 0.000445 0.000000
0.000047 0.000450 0.000000
0.000044 0.000454 0.000000
0.000046 0.000461 0.000000
0.000044 0.000467 0.000000
0.000046 0.000473 0.000000
0.000046 0.000479 0.000000
0.000039 0.000483 0.000000
0.000052 0.000486 0.000000
0.000045 0.000483 0.000000
0.000048 0.000493 0.000000
0.000050 0.000498 0.000000
0.000623 0.000804 0.000000
0.000800 0.000903 0.000000
0.000827 0.000888 0.000000
0.000835 0.000877 0.000000
0.000833 0.000873 0.000000
0.000847 0.000867 0.000000
0.000852 0.000863 0.000000
0.000856 0.000864 0.000000
0.000861 0.000858 0.000000
0.000871 0.000857 0.000000
0.000877 0.000863 0.000000
0.000886 0.000851 0.000000
0.000877 0.000851 0.000000
0.000885 0.000846 0.000000
0.000895 0.000848 0.000000
0.000901 0.000845 0.000000
0.000900 0.000840 0.000000
0.000906 0.000840 0.000000
0.000910 0.000838 0.000000
0.000914 0.000833 0.000000
0.000049 0.000445 0.000000
0.000052 0.000450 0.000000
0.000048 0.000456 0.000000
0.000054 0.000458 0.000000
0.000048 0.000464 0.000000
0.000051 0.000472 0.000000
0.000051 0.000467 0.000000
0.000050 0.000477 0.000000
0.000047 0.000488 0.000000
0.000052 0.000491 0.000000
0.000057 0.000492 0.000000
0.000053 0.000498 0.000000
0.000689 0.000870 0.000000
0.000793 0.000897 0.000000
0.000806 0.000891 0.000000
0.000826 0.000877 0.000000
0.000836 0.000868 0.000000
0.000842 0.000867 0.000000
0.000843 0.000862 0.000000
0.000847 0.000864 0.000000
0.000858 0.000853 0.000000
0.000856 0.000860 0.000000
0.000862 0.000854 0.000000
0.000872 0.000850 0.000000
0.000879 0.000846 0.000000
0.000880 0.000851 0.000000
0.000889 0.000844 0.000000
0.000892 0.000837 0.000000
0.000893 0.000842 0.000000
0.000904 0.000835 0.000000
0.000908 0.000833 0.000000
0.000912 0.000828 0.000000
0.000054 0.000445 0.000000
0.000057 0.000450 0.000000
0.000053 0.000455 0.000000
0.000053 0.000463 0.000000
0.000059 0.000466 0.000000
0.000053 0.000473 0.000000
0.000058 0.000477 0.000000
0.000056 0.000480 0.000000
0.000052 0.000483 0.000000
0.000057 0.000486 0.000000
0.000056 0.000497 0.000000
0.000059 0.000496 0.000000
0.000710 0.000881 0.000000
0.000798 0.000904 0.000000
0.000797 0.000897 0.000000
[...]
POINT_DATA 10674
SCALARS density float 1
LOOKUP_TABLE default
4428.367703
4431.086553
4419.993382
4430.928290
4441.747366
4427.621660
4417.110654
4430.215844
4433.313070
4413.856838
4433.103747
4405.841793
4421.163454
4433.449364
4426.525995
4439.372945
4444.990007
4438.447231
4444.724884
4442.225160
4422.654421
4428.162258
4406.792827
4444.577676
4430.315207
4410.208800
4435.193405
4446.041147
4412.113705
4446.564710
4423.165989
4414.237645
4424.480845
4429.668081
4427.952751
4428.536488
4406.118832
4427.854376
4442.776910
4438.959268
4411.833335
4434.538738
4452.364527
4408.390733
4424.959196
4391.344649
4416.624972
4421.779417
4419.445062
4424.149374
4452.658772
4438.635487
4426.365740
4419.574487
4429.752534
4395.604335
4427.147568
4406.546406
4427.695889
4465.967913
4416.745216
4434.649013
4400.301682
4406.122257
4425.355943
4431.134896
4448.637472
4417.256602
4446.789372
4399.440697
4452.492794
4379.757859
4464.161380
4399.437608
4443.552079
4397.866210
4437.596771
4468.695848
4438.395074
4408.494021
4430.350088
4408.141356
4458.492167
4426.192226
4399.057090
4408.798367
4419.057281
4447.932456
4400.669173
4418.926370
4450.867615
4421.998493
4434.371078
4432.954346
4458.344694
4417.148478
4426.636757
4441.090602
4441.922979
4425.090605
4441.481274
4421.724873
4460.462172
4405.542166
4475.518820
4361.433259
4507.301761
4409.076440
4436.609500
4381.563476
4414.435851
4437.559681
4456.955300
4459.679942
4425.905918
4418.068745
4403.901372
4442.971619
4431.571500
4451.930374
4406.539336
4453.140713
4428.298760
4450.179170
4429.087634
4354.044662
4492.556143
4458.054962
4437.007624
4434.221014
4436.676379
4429.842870
4402.029175
4464.521141
4434.688263
4428.635993
4466.032771
4379.248203
4473.411465
4435.162993
4419.432909
4415.412569
4446.547796
4443.522767
4462.482415
4427.821095
4421.855013
4444.200371
4464.658604
4410.104289
4430.691654
4416.988041
4430.198488
4417.783567
4405.409238
4455.184401
4457.976122
4409.498455
4358.454084
4420.675236
4435.848496
4433.513754
4424.266520
4419.708535
4431.107357
4427.899345
4459.200646
4355.215048
4443.685270
4470.841243
4404.711494
4427.586290
4430.745974
4436.929247
4399.563482
4405.122376
4467.962297
4426.352012
4402.419161
4411.705012
4450.445716
4420.750789
4449.869555
4444.360511
4439.417457
4452.262951
4414.100544
4416.004466
4454.821119
4416.263468
4452.237591
4415.032373
4426.088551
4425.976579
4434.391346
4423.831566
4445.116920
4401.910795
4400.304202
4457.641746
4440.566652
4410.611173
4460.313841
4421.757693
4419.340490
4422.065297
4438.250038
4407.007879
4410.615220
4447.778879
4448.695480
4423.355875
4450.304200
4451.317964
4429.184110
4457.849633
4434.180568
4404.949030
4419.358237
4461.194560
4432.020472
4373.829978
4446.829550
4433.248122
4436.069730
4423.553908
4425.919633
4440.812869
4443.468603
4443.212282
4446.335877
4436.572890
4425.446930
4424.973184
4411.482374
4444.494648
4421.891434
4421.453608
4430.723976
4416.055401
4454.795342
4463.184202
4436.402163
4411.172369
4415.133799
4424.615727
4438.662347
4410.533787
4397.177689
4461.761089
4447.833607
4454.967417
4447.541556
4452.911347
4405.802086
4422.996295
4428.888441
4423.279648
4401.577830
4440.795580
4437.428995
4417.801675
4448.459911
4405.863378
4445.541222
4438.376815
4431.644196
4417.914735
4427.677263
4462.868615
4395.596696
4439.869375
4400.658874
4431.975250
4412.450147
4443.373044
4435.796350
4401.336184
4438.715927
4416.150578
4427.505970
4424.727175
4390.648112
4448.532586
4396.422145
4409.485516
4426.535540
4438.064818
4436.866545
4420.633748
4416.875877
4425.740868
4405.659635
4415.450500
4444.114182
4419.879040
4445.462810
4423.613635
4470.736398
4434.021513
4435.992965
4436.657930
4395.358064
4460.211287
4405.587530
4429.121546
4410.938586
4447.881967
4425.342626
4445.915058
4468.057539
4392.729457
4439.910056
4451.870534
4453.857886
4443.007275
4435.782710
4423.551614
4435.935973
4424.387905
4430.877461
4425.703789
4409.946805
4458.730018
4456.599792
4468.162849
4412.032018
4373.914983
4381.114752
4421.053173
4522.734470
4408.678827
4438.564326
4445.302564
4379.264410
4456.199084
4445.684530
4402.974216
4424.635106
4464.795104
4434.913897
4429.020925
4425.726473
4432.538717
4392.996475
4463.906653
4441.712892
4448.934648
4386.067010
4423.370604
4431.084610
4428.002788
4434.034229
4432.471136
4450.358877
4386.957459
4451.050623
4460.226033
4420.456569
4456.412423
4479.006930
4357.548534
4413.536204
4395.598098
4432.533996
4427.856007
4416.590640
4412.009742
4467.569041
4426.537320
4398.790312
4434.274894
4413.867890
4440.271448
4423.535307
4431.312164
4414.517165
4438.589120
4461.430786
4412.001994
4425.105144
4434.846522
4429.964941
4428.603084
4420.822223
4433.783578
4410.356424
4382.453547
4426.438088
4433.993631
4404.005259
4433.592159
4438.778666
4428.255139
4436.604011
4429.370077
4409.880254
4431.757932
4430.777526
4368.840201
4389.201405
4451.992492
4424.078450
4437.133673
4440.210783
4422.235433
4457.358883
4458.666431
4408.454063
4430.086050
4414.524662
4409.547409
4439.587978
4443.009943
4429.607238
4435.426275
4440.328504
4414.439535
4441.281490
4430.184090
4458.621635
4462.733642
4432.961170
4381.163992
4459.280096
4377.219002
4466.908588
4428.027917
4418.144569
4430.125513
4393.362406
4422.462588
4419.349328
4395.261289
4451.260354
4439.683506
4389.304071
4445.414434
4456.187010
4442.383510
4413.024783
4426.722210
4444.089158
4435.964309
4423.139502
4442.456741
4417.133963
4430.970553
4436.292246
4417.745469
4386.018497
4456.980043
4423.741069
4431.063085
4417.812612
4448.603489
4403.643987
4406.835369
4437.773438
4456.441922
4424.019733
4425.025692
4428.382563
4477.689717
4463.299391
4432.589216
4440.567555
4460.476293
4359.668645
4423.940416
4442.077126
4397.710294
4438.570027
4403.802255
4431.041602
4419.390956
4413.105563
4406.088016
4444.910250
4429.645410
4433.945131
4431.743234
4481.905234
4416.260482
4419.598537
4401.745088
4458.223137
4456.495446
4466.470976
4358.175770
4396.131377
4455.973068
4434.823096
4414.117224
4427.831353
4447.835856
4444.123418
4446.777717
4398.878879
4452.348917
4408.011841
4406.377933
4424.715080
4443.429088
4387.116335
4446.451555
4397.096278
4431.402896
4435.884856
4428.250133
4427.273076
4424.452108
4421.739246
4429.168300
4433.009438
4435.619672
4416.259645
4456.249957
4376.786967
4473.935045
4442.600385
4492.096709
4405.330248
4429.556911
4427.778787
4421.648207
4433.566030
4433.453836
4468.090097
4435.847075
4430.607850
4453.994833
4426.338075
4434.780617
4444.381699
4418.351252
4441.371335
4392.874872
4434.005379
4454.330827
4414.688835
4446.902355
4424.881258
4443.097462
4442.022954
4438.103022
4403.622624
4417.419550
4422.007571
4447.261903
4409.117581
4429.771040
4418.289013
4387.732565
4440.094048
4476.100530
4430.893990
4434.079430
4442.146380
4439.945513
4460.123720
4440.017635
4473.789598
4467.700224
4403.918074
4441.664822
4439.722781
4451.310564
4419.629206
4443.647086
4422.451449
4398.494016
4450.841761
4434.914277
4420.555032
4425.131778
4418.728259
4425.100884
4414.971320
4468.998218
4435.181688
4433.320746
4424.447386
4431.829329
4447.702131
4405.968491
4399.332035
4430.930661
4416.194492
4417.404379
4426.979572
4432.489834
4433.659888
4407.325403
4444.767702
4434.474992
4431.315249
4451.359344
4420.297816
4420.659314
4421.022484
4455.284087
4443.631958
4442.657851
4442.205729
4413.464817
4432.085551
4427.917195
4446.423741
4410.249989
4462.101555
4437.274768
4392.362666
4403.459354
4421.026823
4410.256026
4437.247727
4443.837550
4432.294172
4433.106666
4431.739640
4438.092146
4441.240865
4458.379388
4449.532579
4445.792389
4413.699597
4416.813026
4479.966183
4412.757276
4435.338000
4430.206100
4446.347581
4397.415852
4406.164364
4434.481043
4413.451626
4450.006385
4431.088017
4431.262549
4426.204581
4417.639966
4447.869457
4411.862562
4427.992373
4435.321579
4447.142984
4408.133410
4445.610543
4487.278699
4393.856303
4496.205817
4429.866152
4413.620573
4431.888910
4468.169551
4442.373856
4427.348376
4382.470882
4410.347302
4425.346613
4452.710939
4465.963000
4444.034675
4450.527605
4427.823712
4454.072415
4437.636903
4449.484260
4429.191345
4411.429113
4427.940985
4436.877747
4414.951460
4423.571160
4438.077950
4451.969188
4423.960449
4443.290867
4422.367553
4442.824442
4387.203759
4436.450385
4433.690267
4429.073191
4425.997862
4428.441881
4444.157530
4453.020227
4427.528758
4424.081063
4458.173993
4412.870635
4352.160506
4424.171307
4411.815546
4464.981705
4446.952815
4428.640823
4397.414570
4442.509754
4405.212273
4445.690769
4435.848765
4411.525601
4425.954042
4419.647143
4404.717907
4427.178337
4427.334722
4419.175461
4398.345055
4443.468782
4399.164624
4387.395241
4465.775253
4428.217211
4420.711081
4396.629353
4452.456896
4456.733854
4428.759856
4439.456394
4439.340542
4449.919092
4397.110200
4369.692396
4438.244417
4366.012493
4374.388125
4453.522392
4419.416507
4446.945656
4409.913509
4425.329911
4417.757504
4438.798038
4434.616255
4433.003159
4453.368049
4442.490273
4441.548022
4404.758169
4442.893237
4470.536152
4448.246617
4425.964261
4427.352635
4434.149770
4453.288562
4406.713753
4392.132303
4370.383055
4446.422932
4410.659717
4457.685710
4408.694843
4438.599105
4439.377627
4456.368203
4466.962870
4475.396848
4450.738642
4417.790822
4442.586643
4420.499549
4457.409527
4418.384874
4424.673851
4429.684788
4429.440805
4429.544931
4429.495424
4429.259928
4429.276042
4429.271504
4429.734611
4430.294928
4430.977700
4431.098681
4430.939491
4430.208431
4429.836591
4426.475701
4429.295501
4429.284803
4429.964724
4430.726163
4431.640707
4432.423361
4432.688676
4432.416758
4431.045946
4430.003939
4429.411857
4429.791322
4430.466754
4430.844219
4427.708074
4429.001330
4429.073681
4428.943726
4428.852969
4427.844857
4427.599106
4427.117861
4427.999961
4429.344475
4431.098786
4431.400002
4430.599443
4430.593223
4428.495227
4428.296721
4429.008380
4429.367327
4429.497123
4430.659956
4431.374653
4432.576895
4432.869954
4432.419917
4430.831792
4429.068145
4428.447331
4428.679998
4428.912004
4430.426231
4428.765534
4429.069925
4429.203384
4428.921805
4428.552429
4427.600974
4427.095490
4426.320170
4427.500288
4428.509507
4430.901694
4430.599578
4431.133277
4428.375228
4429.471901
4428.822170
4429.187885
4429.331346
4429.346329
4430.612873
4431.002191
4432.526132
4432.458249
4432.410273
4430.111031
4429.041445
4427.552199
4428.600372
4428.328742
4428.979018
4428.870866
4429.061620
4429.327054
4428.806318
4428.410514
4427.481749
4426.747483
4426.123851
4426.891641
4428.512424
4430.069468
4430.824050
4429.531901
4428.189975
4428.300453
4428.850853
4429.229484
4429.220638
4429.375376
4430.310877
4430.991817
4432.137091
4432.458860
4432.035467
4430.003567
4428.793268
4427.404797
4428.899179
4428.220592
4428.938056
4428.544219
4429.118530
4429.193624
4428.573150
4428.526246
4427.053190
4426.903368
4425.475337
4427.007627
4427.857895
4430.359774
4430.557331
4430.881150
4429.742946
4431.848155
4428.752204
4429.101593
4429.167943
4429.254468
4430.122453
4430.892432
4431.763371
4432.401225
4431.738228
4429.827271
4428.641354
4427.336282
4429.296947
4429.137224
4429.894735
4428.528337
4429.187778
4428.956377
4428.725369
4428.047236
4427.208338
4426.371110
4425.461284
4426.487182
4427.828270
4429.581473
4430.529576
4429.090854
4428.440077
4426.906356
4428.546107
4429.143424
4428.862776
4429.149997
4429.904868
4430.665641
4431.452915
4432.416815
4431.456913
4429.713912
4428.182390
4426.914474
4427.848227
4427.455917
4428.375610
4428.518243
4428.972439
4429.009283
4428.608536
4427.845726
4427.123255
4426.296893
4425.221529
4426.321393
4427.445148
4429.343629
4430.127748
4429.890345
4428.028428
4430.115920
4454.497940
4448.599397
4440.745767
4438.366064
4408.626610
4458.467000
4433.178549
4420.678279
4393.479144
4448.813765
4454.431253
4397.253666
4432.018148
4463.281260
4425.300983
4428.515146
4428.402903
4428.834086
4428.921795
4428.571979
4430.096441
4430.114627
4431.571120
4432.090550
4431.464738
4429.162456
4428.213752
4426.400375
4428.425960
4429.043678
4430.546731
4438.070321
4418.423555
4427.359503
4395.281272
4398.461931
4441.730768
4433.860932
4380.937387
4402.416749
4429.257008
4435.180360
4432.278861
4428.138758
4457.341499
4425.884591
4402.748201
4428.054405
4428.783702
4429.022091
4428.187897
4428.029681
4426.535613
4426.682552
4424.540276
4426.356747
4426.673175
4429.091279
4429.522247
4429.204406
4428.216808
4429.657513
4438.987744
4452.983492
4419.783296
4419.662185
4409.656934
4447.642066
4416.443532
4413.183684
4404.045596
4421.377481
4447.851471
4414.211482
4430.675990
4422.857121
4453.423918
4433.381868
4428.243486
4428.716092
4428.583983
4428.528153
4429.553641
4430.164255
4431.010866
4432.208376
4430.909695
4429.101824
4427.533957
4425.930411
4427.506404
4426.193586
4429.667706
4420.774344
4409.303117
4416.786555
4385.932012
4394.781869
4450.904392
4427.087881
4442.051822
4446.148938
4448.058818
4389.511755
4444.932493
4377.064816
4394.286757
4428.798232
4449.100204
4427.880095
4428.718543
4428.942301
4427.872221
4428.034772
4426.324660
4426.595139
4424.485287
4425.894234
4426.389386
4428.563724
4428.659282
4428.214841
4425.239518
4424.954861
4433.874673
4447.895513
4438.403871
4454.331887
4438.431715
4430.118370
4441.944947
4428.086302
4418.177033
4417.321386
4385.763925
4434.608256
4420.870691
4442.845169
4429.408900
4421.342997
4427.856946
4428.711916
4428.195920
4428.618679
4429.123750
4430.271974
4430.727981
4432.206722
4430.874144
4428.851656
4427.168117
4425.824453
4426.407076
4425.891740
4424.261506
4412.613144
4409.727838
4440.739177
4396.132090
4484.372241
4387.989217
4434.681352
4437.210977
4427.364995
4405.215485
4385.521350
4408.428623
4417.240623
4395.713507
4443.344915
4419.103253
4428.068444
4428.723746
4428.819166
4428.087870
4427.790644
4426.672827
4426.396051
4424.740398
4425.459052
4426.530762
4427.885028
4428.764212
4426.990386
4426.393326
4425.784662
4448.366399
4418.134417
4439.606904
4409.297841
4363.722964
4446.894925
4434.062606
4434.156454
4428.937929
4417.213531
4390.286411
4458.260781
4460.386650
4427.568704
4469.530018
4394.186169
4427.836741
4428.395299
4428.423868
4428.009864
4429.468511
4429.778232
4430.778261
4432.151349
4430.993326
4428.715282
4427.524027
4425.720131
4427.346531
4426.961236
4427.212647
4438.420030
4423.086396
4438.248395
4440.415101
4423.532490
4468.492429
4406.523341
4421.704124
4426.595220
4421.948119
4447.794982
4375.915150
4465.953457
4410.902626
4437.033790
4437.508503
4428.015707
4428.378035
4429.101728
4427.902992
4428.038531
4426.166552
4427.204805
4423.919088
4426.290656
4425.674731
4428.471809
4428.810258
4428.221416
4427.537399
4429.462782
4437.531534
4412.753231
4407.241520
4422.137910
4448.434587
4437.980835
4431.098340
4426.632870
4366.178495
4455.114787
4423.796528
4409.843652
4453.566413
4424.109192
4418.050986
4399.628116
4427.911762
4428.085804
4428.668690
4427.259414
4429.806970
4429.207373
4430.778354
4432.035683
4430.992766
4428.547508
4427.949599
4425.592742
4428.791150
4426.943894
4428.983764
4439.795451
4411.607551
4453.755700
4450.397819
4374.731723
4420.834078
4428.368533
4446.014899
4414.874596
4441.156579
4418.452475
4434.875480
4366.469402
4468.055551
4386.850224
4441.183801
4427.828287
4428.328875
4429.063144
4427.954208
4427.873951
4426.072296
4427.268383
4423.885672
4426.076433
4425.522554
4428.108051
4428.808508
4428.071219
4427.027583
4429.994990
4432.130424
4428.285993
4455.308592
4449.789166
4458.788812
4429.920100
4446.141766
4455.033364
4384.508577
4463.175247
4433.477048
4449.533730
4458.025766
4393.757609
4397.840325
4387.575865
4427.902850
4428.269821
4428.114310
4427.439589
4429.007736
4429.472990
4430.198031
4432.050139
4430.952496
4428.593774
4427.612309
4425.595334
4427.644912
4426.760405
4425.761296
4418.233530
4438.023207
4413.525242
4404.759591
4418.580905
4417.309021
4429.496001
4444.430600
4447.411655
4404.125565
4455.489096
4399.624648
4407.732030
4413.444667
4427.344962
4456.661237
4427.618257
4428.574933
4428.893466
4427.798187
4428.015928
4426.263182
4427.067604
4424.747162
4425.504365
4425.730223
4427.430845
4428.347909
4426.304819
4426.376755
4425.416170
4423.489618
4450.582634
4414.472957
4423.259863
4415.626726
4437.304617
4435.786603
4435.899771
4411.159643
4403.700495
4413.048072
4457.978852
4430.666644
4401.309593
4520.473093
4447.138354
4427.654246
4428.820196
4427.115022
4428.291469
4427.942675
4430.549691
4429.294541
4432.712271
4430.559740
4429.137155
4426.528274
4426.122871
4426.729828
4425.763312
4427.428267
4428.644307
4466.927941
4383.865945
4465.927880
4436.763554
4419.493597
4426.070806
4427.785354
4416.731793
4422.696425
4420.893454
4419.957597
4433.578353
4436.508403
4414.464721
4453.643561
4427.473492
4429.083174
4428.401316
4428.712829
4427.308559
4427.385097
4425.878186
4425.635446
4424.747258
4425.620257
4426.885698
4427.759060
4426.176524
4426.686316
4424.425572
4435.422816
4430.032162
4420.255423
4410.484932
4449.721037
4437.759680
4425.246329
4445.284322
4423.063444
4439.238591
4391.740578
4422.029296
4427.436450
4415.848074
4396.966976
4398.968297
4427.669092
4428.436726
4427.549801
4427.275298
4428.855448
4429.393160
4429.734207
4432.514465
4430.655436
4429.377125
4426.626164
4426.451777
4425.725057
4427.209101
4424.776298
4415.735491
4428.855685
4429.309050
4418.460085
4380.253033
4440.603718
4429.187360
4426.379164
4415.559138
4476.689014
4440.289044
4424.474074
4431.920671
4435.186435
4412.591869
4432.849800
4427.963722
4428.550358
4429.168081
4428.574330
4427.529705
4427.242583
4427.024994
4424.892262
4426.365085
4424.863773
4426.973074
4427.610512
4427.047660
4425.551674
4427.337657
4423.769242
4422.548614
4406.083658
4453.919907
4404.324821
4432.596749
4427.566863
4438.345332
4449.436564
4443.160505
4451.923885
4417.933088
4418.953886
4456.771569
4489.871949
4423.377263
4427.922954
4428.041074
4427.786492
4426.380977
4428.983139
4428.174789
4430.430078
4431.638250
4430.438614
4428.636165
4427.661703
4423.884520
4427.264548
4424.953477
4425.014600
4431.247361
4410.767040
4411.527337
4445.798024
4377.741328
4412.305603
4442.220150
4421.262796
4472.372882
4461.508349
4443.525747
4380.315797
4457.883005
4459.138802
4405.745180
4435.226828
4427.803515
4427.754164
4429.944453
4426.741969
4428.803108
4425.115661
4428.367596
4422.680106
4427.066013
4423.182530
4426.447992
4427.525527
4425.745684
4423.529617
4428.370374
4433.811390
4456.484287
4419.822503
4459.950707
4370.355525
4435.398751
4436.786286
4436.099150
4436.326254
4470.263942
4441.665467
4449.532477
4416.055603
4431.820586
4379.774304
4426.998841
4427.626599
4428.231586
4427.324918
4426.782987
4427.853881
4429.096222
4429.923783
4432.150687
4430.975292
4430.130058
4427.530723
4424.925873
4425.399061
4424.334730
4425.560666
4438.589233
4403.413105
4407.850782
4368.962774
4413.083304
4449.074851
4588.617569
4443.648064
4433.335059
4444.674743
4401.916055
4427.626538
4403.317016
4433.304257
4405.331502
4441.136239
4427.422518
4429.106632
4428.156023
4428.967657
4427.676305
4427.668900
4427.038609
4426.324962
4425.946005
4424.669025
4426.618929
4426.605177
4425.565048
4425.327888
4423.314869
4439.445868
4464.917286
4448.825024
4432.921907
4446.552316
4419.748417
4418.364274
4478.009205
4375.823842
4436.980900
4423.993565
4421.019828
4445.403479
4420.921515
4549.329825
4415.067533
4427.202656
4428.588660
4427.208120
4426.823733
4427.804307
4429.665821
4428.281438
4433.004647
4429.939018
4429.414945
4425.659486
4426.332616
4424.001759
4424.954871
4424.074344
4439.843894
4419.233685
4430.754377
4435.198245
4467.665994
4454.279793
4434.742129
4435.475425
4442.675534
4420.867810
4448.908599
4438.617992
4470.640989
4411.834628
4298.728789
4437.286412
4427.779549
4429.547395
4428.322407
4430.166769
4426.601042
4428.179108
4425.461448
4426.202382
4423.348347
4424.806597
4423.631029
4425.015923
4424.389911
4424.460737
4419.143436
4417.127538
4447.023391
4421.477675
4429.239013
4443.583040
4414.378701
4445.466621
4442.362040
4442.487253
4432.390031
4420.314578
4456.668065
4451.693378
4396.669260
4372.347057
4401.363357