# vtk DataFile Version 2.0
mfree iwf
ASCII

DATASET UNSTRUCTURED_GRID
POINTS 8526 float
0.000001 0.000445 0.000000
0.000001 0.000450 0.000000
0.000001 0.000455 0.000000
0.000001 0.000460 0.000000
0.000001 0.000465 0.000000
0.000001 0.000470 0.000000
0.000001 0.000475 0.000000
0.000001 0.000480 0.000000
0.000001 0.000486 0.000000
0.000001 0.000490 0.000000
0.000001 0.000496 0.000000
0.000003 0.000500 0.000000
0.000111 0.000550 0.000000
0.000111 0.000556 0.000000
0.000111 0.000570 0.000000
0.000111 0.000577 0.000000
0.000111 0.000577 0.000000
0.000111 0.000584 0.000000
0.000111 0.000588 0.000000
0.000111 0.000596 0.000000
0.000111 0.000607 0.000000
0.000111 0.000614 0.000000
0.000112 0.000620 0.000000
0.000112 0.000624 0.000000
0.000113 0.000629 0.000000
0.000114 0.000635 0.000000
0.000115 0.000638 0.000000
0.000116 0.000645 0.000000
0.000117 0.000648 0.000000
0.000118 0.000654 0.000000
0.000119 0.000662 0.000000
0.000124 0.000690 0.000000
0.000006 0.000445 0.000000
0.000006 0.000450 0.000000
0.000006 0.000455 0.000000
0.000006 0.000460 0.000000
0.000006 0.000465 0.000000
0.000006 0.000470 0.000000
0.000006 0.000476 0.000000
0.000006 0.000480 0.000000
0.000006 0.000486 0.000000
0.000007 0.000490 0.000000
0.000005 0.000496 0.000000
0.000007 0.000499 0.000000
0.000113 0.000567 0.000000
0.000118 0.000576 0.000000
0.000114 0.000593 0.000000
0.000114 0.000598 0.000000
0.000114 0.000603 0.000000
0.000115 0.000608 0.000000
0.000115 0.000613 0.000000
0.000116 0.000618 0.000000
0.000117 0.000624 0.000000
0.000118 0.000630 0.000000
0.000119 0.000636 0.000000
0.000120 0.000642 0.000000
0.000122 0.000650 0.000000
0.000122 0.000656 0.000000
0.000123 0.000661 0.000000
0.000124 0.000665 0.000000
0.000123 0.000675 0.000000
0.000123 0.000679 0.000000
0.000122 0.000675 0.000000
0.000124 0.000686 0.000000
0.000011 0.000445 0.000000
0.000012 0.000450 0.000000
0.000010 0.000456 0.000000
0.000012 0.000460 0.000000
0.000011 0.000466 0.000000
0.000012 0.000470 0.000000
0.000011 0.000476 0.000000
0.000012 0.000480 0.000000
0.000010 0.000486 0.000000
0.000012 0.000490 0.000000
0.000010 0.000497 0.000000
0.000012 0.000498 0.000000
0.000120 0.000566 0.000000
0.000120 0.000573 0.000000
0.000117 0.000581 0.000000
0.000118 0.000586 0.000000
0.000117 0.000591 0.000000
0.000119 0.000595 0.000000
0.000119 0.000602 0.000000
0.000121 0.000609 0.000000
0.000121 0.000613 0.000000
0.000120 0.000620 0.000000
0.000123 0.000623 0.000000
0.000122 0.000631 0.000000
0.000126 0.000633 0.000000
0.000127 0.000641 0.000000
0.000123 0.000645 0.000000
0.000125 0.000654 0.000000
0.000126 0.000668 0.000000
0.000126 0.000672 0.000000
0.000126 0.000681 0.000000
0.000129 0.000687 0.000000
0.000016 0.000445 0.000000
0.000017 0.000450 0.000000
0.000015 0.000455 0.000000
0.000017 0.000460 0.000000
0.000015 0.000466 0.000000
0.000017 0.000470 0.000000
0.000015 0.000476 0.000000
0.000017 0.000480 0.000000
0.000015 0.000485 0.000000
0.000018 0.000489 0.000000
0.000015 0.000496 0.000000
0.000018 0.000498 0.000000
0.000026 0.000500 0.000000
0.000120 0.000580 0.000000
0.000121 0.000587 0.000000
0.000124 0.000592 0.000000
0.000126 0.000601 0.000000
0.000120 0.000604 0.000000
0.000127 0.000610 0.000000
0.000123 0.000616 0.000000
0.000128 0.000622 0.000000
0.000124 0.000628 0.000000
0.000130 0.000636 0.000000
0.000123 0.000639 0.000000
0.000128 0.000648 0.000000
0.000129 0.000653 0.000000
0.000129 0.000658 0.000000
0.000128 0.000663 0.000000
0.000131 0.000665 0.000000
0.000131 0.000674 0.000000
0.000130 0.000679 0.000000
0.000133 0.000686 0.000000
0.000020 0.000445 0.000000
0.000022 0.000450 0.000000
0.000020 0.000456 0.000000
0.000022 0.000460 0.000000
0.000020 0.000465 0.000000
0.000022 0.000469 0.000000
0.000020 0.000475 0.000000
0.000023 0.000480 0.000000
0.000020 0.000486 0.000000
0.000022 0.000490 0.000000
0.000022 0.000498 0.000000
0.000023 0.000499 0.000000
0.000040 0.000500 0.000000
0.000129 0.000576 0.000000
0.000128 0.000584 0.000000
0.000128 0.000588 0.000000
0.000124 0.000597 0.000000
0.000128 0.000596 0.000000
0.000127 0.000607 0.000000
0.000128 0.000614 0.000000
0.000129 0.000618 0.000000
0.000130 0.000626 0.000000
0.000134 0.000630 0.000000
0.000134 0.000638 0.000000
0.000131 0.000643 0.000000
0.000134 0.000648 0.000000
0.000134 0.000654 0.000000
0.000136 0.000664 0.000000
0.000133 0.000670 0.000000
0.000136 0.000676 0.000000
0.000135 0.000679 0.000000
0.000136 0.000685 0.000000
0.000025 0.000445 0.000000
0.000027 0.000450 0.000000
0.000025 0.000455 0.000000
0.000027 0.000459 0.000000
0.000026 0.000466 0.000000
0.000027 0.000470 0.000000
0.000024 0.000476 0.000000
0.000028 0.000479 0.000000
0.000025 0.000485 0.000000
0.000028 0.000490 0.000000
0.000027 0.000493 0.000000
0.000028 0.000500 0.000000
0.000111 0.000564 0.000000
0.000124 0.000575 0.000000
0.000124 0.000582 0.000000
0.000129 0.000592 0.000000
0.000134 0.000595 0.000000
0.000129 0.000604 0.000000
0.000135 0.000606 0.000000
0.000133 0.000611 0.000000
0.000133 0.000620 0.000000
0.000135 0.000624 0.000000
0.000130 0.000631 0.000000
0.000137 0.000635 0.000000
0.000135 0.000644 0.000000
0.000138 0.000654 0.000000
0.000135 0.000659 0.000000
0.000139 0.000660 0.000000
0.000137 0.000670 0.000000
0.000141 0.000669 0.000000
0.000140 0.000679 0.000000
0.000141 0.000684 0.000000
0.000031 0.000445 0.000000
0.000031 0.000450 0.000000
0.000030 0.000456 0.000000
0.000033 0.000462 0.000000
0.000029 0.000465 0.000000
0.000032 0.000469 0.000000
0.000030 0.000475 0.000000
0.000032 0.000480 0.000000
0.000031 0.000485 0.000000
0.000032 0.000491 0.000000
0.000034 0.000497 0.000000
0.000032 0.000499 0.000000
0.000050 0.000500 0.000000
0.000127 0.000571 0.000000
0.000135 0.000584 0.000000
0.000134 0.000588 0.000000
0.000134 0.000601 0.000000
0.000137 0.000602 0.000000
0.000136 0.000612 0.000000
0.000136 0.000616 0.000000
0.000141 0.000620 0.000000
0.000138 0.000629 0.000000
0.000142 0.000632 0.000000
0.000139 0.000642 0.000000
0.000143 0.000647 0.000000
0.000139 0.000649 0.000000
0.000143 0.000652 0.000000
0.000140 0.000663 0.000000
0.000146 0.000670 0.000000
0.000142 0.000674 0.000000
0.000145 0.000678 0.000000
0.000146 0.000684 0.000000
0.000036 0.000445 0.000000
0.000036 0.000450 0.000000
0.000038 0.000455 0.000000
0.000034 0.000457 0.000000
0.000036 0.000465 0.000000
0.000038 0.000472 0.000000
0.000034 0.000476 0.000000
0.000039 0.000481 0.000000
0.000035 0.000484 0.000000
0.000036 0.000489 0.000000
0.000039 0.000492 0.000000
0.000037 0.000498 0.000000
0.000111 0.000543 0.000000
0.000111 0.000560 0.000000
0.000135 0.000580 0.000000
0.000137 0.000590 0.000000
0.000137 0.000595 0.000000
0.000142 0.000600 0.000000
0.000139 0.000609 0.000000
0.000144 0.000612 0.000000
0.000140 0.000624 0.000000
0.000145 0.000623 0.000000
0.000140 0.000637 0.000000
0.000145 0.000636 0.000000
0.000144 0.000642 0.000000
0.000146 0.000655 0.000000
0.000146 0.000659 0.000000
0.000149 0.000663 0.000000
0.000145 0.000666 0.000000
0.000149 0.000672 0.000000
0.000149 0.000677 0.000000
0.000150 0.000683 0.000000
0.000041 0.000445 0.000000
0.000041 0.000450 0.000000
0.000039 0.000460 0.000000
0.000042 0.000457 0.000000
0.000041 0.000465 0.000000
0.000040 0.000469 0.000000
0.000043 0.000475 0.000000
0.000039 0.000477 0.000000
0.000042 0.000486 0.000000
0.000043 0.000491 0.000000
0.000043 0.000497 0.000000
0.000046 0.000498 0.000000
0.000111 0.000512 0.000000
0.000119 0.000568 0.000000
0.000136 0.000577 0.000000
0.000146 0.000586 0.000000
0.000142 0.000596 0.000000
0.000143 0.000605 0.000000
0.000145 0.000607 0.000000
0.000143 0.000616 0.000000
0.000147 0.000619 0.000000
0.000145 0.000628 0.000000
0.000148 0.000631 0.000000
0.000150 0.000639 0.000000
0.000148 0.000646 0.000000
0.000151 0.000649 0.000000
0.000149 0.000653 0.000000
0.000151 0.000659 0.000000
0.000152 0.000667 0.000000
0.000154 0.000671 0.000000
0.000154 0.000677 0.000000
0.000155 0.000682 0.000000
0.000045 0.000445 0.000000
0.000046 0.000450 0.000000
0.000046 0.000455 0.000000
0.000046 0.000461 0.000000
0.000046 0.000466 0.000000
0.000047 0.000469 0.000000
0.000047 0.000477 0.000000
0.000044 0.000481 0.000000
0.000051 0.000484 0.000000
0.000046 0.000486 0.000000
0.000049 0.000493 0.000000
0.000051 0.000498 0.000000
0.000111 0.000519 0.000000
0.000117 0.000558 0.000000
0.000129 0.000580 0.000000
0.000144 0.000590 0.000000
0.000146 0.000595 0.000000
0.000148 0.000603 0.000000
0.000149 0.000613 0.000000
0.000151 0.000617 0.000000
0.000150 0.000626 0.000000
0.000154 0.000628 0.000000
0.000151 0.000635 0.000000
0.000152 0.000644 0.000000
0.000154 0.000640 0.000000
0.000155 0.000653 0.000000
0.000156 0.000657 0.000000
0.000156 0.000662 0.000000
0.000158 0.000667 0.000000
0.000158 0.000672 0.000000
0.000159 0.000676 0.000000
0.000160 0.000681 0.000000
0.000050 0.000445 0.000000
0.000052 0.000450 0.000000
0.000050 0.000457 0.000000
0.000053 0.000459 0.000000
0.000050 0.000465 0.000000
0.000053 0.000471 0.000000
0.000049 0.000474 0.000000
0.000052 0.000478 0.000000
0.000050 0.000488 0.000000
0.000053 0.000491 0.000000
0.000059 0.000493 0.000000
0.000054 0.000499 0.000000
0.000111 0.000539 0.000000
0.000118 0.000556 0.000000
0.000126 0.000567 0.000000
0.000142 0.000586 0.000000
0.000150 0.000594 0.000000
0.000151 0.000601 0.000000
0.000154 0.000606 0.000000
0.000151 0.000610 0.000000
0.000156 0.000620 0.000000
0.000152 0.000622 0.000000
0.000155 0.000632 0.000000
0.000158 0.000636 0.000000
0.000159 0.000645 0.000000
0.000157 0.000648 0.000000
0.000160 0.000653 0.000000
0.000161 0.000658 0.000000
0.000161 0.000664 0.000000
0.000163 0.000670 0.000000
0.000164 0.000675 0.000000
0.000165 0.000680 0.000000
0.000055 0.000445 0.000000
0.000057 0.000450 0.000000
0.000055 0.000454 0.000000
0.000057 0.000461 0.000000
0.000055 0.000465 0.000000
0.000058 0.000469 0.000000
0.000057 0.000476 0.000000
0.000059 0.000482 0.000000
0.000055 0.000483 0.000000
0.000057 0.000487 0.000000
0.000057 0.000497 0.000000
0.000061 0.000497 0.000000
0.000113 0.000543 0.000000
0.000112 0.000562 0.000000
0.000122 0.000563 0.000000
[...]
POINT_DATA 8526
SCALARS density float 1
LOOKUP_TABLE default
4427.390437
4429.398133
4426.195379
4422.874671
4422.693703
4427.491819
4439.028271
4432.368587
4443.314386
4425.070167
4434.476376
4396.951775
4542.670655
4469.130532
4579.969282
4469.648390
4463.190635
4546.621306
4486.079165
4602.642037
4483.515223
4415.219706
4412.068927
4427.093681
4427.350780
4421.539721
4427.170444
4428.217389
4436.976604
4424.777856
4446.724400
4422.879803
4423.815951
4424.571010
4423.192353
4430.880731
4443.218431
4418.715910
4419.827082
4422.024071
4408.514062
4416.269239
4446.727161
4397.817148
4429.611132
4474.933866
4396.666575
4380.125410
4383.799872
4407.914225
4423.151536
4424.818826
4426.939455
4393.129513
4403.683931
4409.596303
4411.752961
4407.583303
4404.218569
4391.767190
4441.027710
4392.904889
4445.793444
4458.051916
4422.788759
4418.702130
4445.871253
4406.530226
4433.066820
4409.747106
4458.426714
4383.652465
4481.893408
4362.154997
4481.036188
4405.993021
4443.773617
4434.232614
4421.267975
4442.909231
4423.565811
4480.197127
4489.506761
4412.833532
4432.610036
4423.574062
4394.555058
4463.875982
4404.875704
4422.281192
4436.036798
4442.464209
4403.366826
4466.058970
4410.953747
4421.347278
4429.135479
4436.453942
4424.812615
4439.942735
4445.284176
4416.162605
4457.577443
4382.881240
4473.689350
4376.365243
4524.232105
4395.824612
4431.706284
4474.959494
4462.902449
4445.494662
4380.809750
4460.150511
4437.029053
4428.345474
4449.746499
4427.649045
4414.080626
4437.948850
4366.783698
4477.922090
4379.814514
4506.444253
4445.786474
4382.174260
4462.343392
4436.102467
4428.807068
4433.321849
4440.245015
4420.241375
4435.333858
4428.527617
4434.246873
4436.904805
4474.804874
4358.569759
4470.864531
4427.395871
4411.749148
4406.729865
4477.412500
4428.013257
4396.363754
4479.887761
4467.369267
4404.706119
4455.421876
4389.536892
4453.289306
4433.072894
4457.092967
4412.683471
4454.527910
4417.669245
4405.714193
4462.959799
4406.541009
4433.520850
4431.670755
4433.851628
4438.286892
4424.276420
4449.274833
4424.413440
4438.724868
4417.134545
4406.871234
4478.807432
4436.479259
4421.765289
4398.940646
4462.817268
4434.057500
4442.981312
4450.180785
4430.900361
4425.829914
4435.759977
4420.723948
4434.127393
4430.776193
4423.591043
4446.743532
4441.543770
4376.163862
4456.243074
4453.253141
4424.632734
4420.930445
4431.311083
4438.921601
4427.274515
4412.654306
4417.689876
4435.801126
4412.924826
4440.063697
4417.599425
4432.303649
4377.109046
4473.129350
4412.465895
4427.206358
4486.950727
4430.053653
4479.891350
4442.258372
4455.214614
4464.202941
4422.321751
4436.175707
4401.362158
4450.839737
4399.602401
4433.816804
4429.193145
4419.862572
4450.056185
4444.701958
4410.919099
4426.479618
4431.194644
4440.190136
4437.374977
4400.018876
4447.058839
4440.519228
4438.345826
4429.860942
4403.238391
4437.489248
4424.206130
4431.127718
4447.917203
4646.200676
4463.360029
4435.909083
4458.688361
4446.263375
4446.743606
4441.745916
4433.964322
4428.048772
4450.087022
4460.276513
4419.025831
4426.669312
4417.590203
4419.439181
4429.829738
4391.401619
4427.783914
4423.107371
4430.092744
4427.012092
4436.357449
4428.311344
4437.608725
4430.898616
4426.108418
4429.338575
4424.299858
4461.703434
4402.167178
4434.706947
4424.318752
4814.170640
4445.909883
4473.773667
4459.062928
4473.383251
4459.151456
4483.836632
4444.323925
4451.904919
4460.488223
4433.416718
4450.719171
4419.836838
4418.297092
4432.988251
4444.158365
4410.999064
4422.341071
4409.918824
4434.982716
4432.285211
4428.237098
4422.650375
4419.174359
4442.942348
4429.098650
4451.849574
4416.792956
4450.919870
4406.838307
4465.533411
4441.266403
4565.992610
4510.629188
4471.248030
4449.211748
4465.040193
4455.458767
4470.834406
4450.643581
4436.401562
4443.609771
4439.817159
4428.778750
4438.383307
4426.208163
4416.068828
4423.109906
4434.050097
4448.341907
4430.949104
4417.848872
4431.844163
4422.147391
4433.181056
4428.628725
4415.212868
4406.179261
4447.394355
4384.999773
4436.451735
4414.129097
4562.503435
4393.855402
4463.299898
4464.745212
4445.753156
4447.560162
4457.205580
4418.228525
4464.025071
4438.446714
4460.153883
4440.249982
4440.327245
4414.367616
4438.962800
4451.405489
4443.096680
4445.492228
4427.262410
4407.959171
4420.467390
4418.103779
4433.497657
4421.522707
4431.922894
4419.498755
4435.300576
4428.754730
4429.326336
4403.265861
4482.766535
4375.826961
4392.252626
4392.080978
4431.927187
4417.634481
4466.281538
4467.363338
4459.573178
4480.392718
4462.640544
4448.248729
4444.527655
4462.843825
4450.020457
4450.336440
4436.260703
4424.336631
4431.568067
4416.679707
4439.581980
4435.168881
4422.997200
4423.514894
4427.907056
4408.480416
4425.540791
4422.140036
4418.191707
4410.998427
4462.050482
4398.916751
4462.948771
4398.740517
4447.817862
4439.081937
4408.914359
4366.287683
4443.071219
4446.282850
4418.102907
4449.252081
4455.375950
4453.964161
4443.752036
4451.294651
4441.574150
4454.524804
4440.998838
4430.226295
4450.428633
4446.527564
4428.223287
4408.180686
4417.301355
4416.887735
4442.944085
4429.889314
4435.311223
4421.409887
4446.727984
4408.774310
4458.054705
4434.056915
4443.304456
4377.730482
4443.294198
4431.564336
4679.747067
4475.303993
4401.284188
4483.067192
4464.193898
4437.821014
4459.036138
4466.520159
4461.320062
4449.561738
4445.957233
4418.103484
4446.155481
4449.454307
4417.337077
4426.661935
4452.462870
4419.378614
4424.265809
4417.507375
4422.071591
4424.136834
4409.609211
4419.990374
4420.954808
4413.850044
4440.396177
4384.394304
4442.859695
4448.364179
4441.287315
4450.758766
4599.618563
4472.666316
4452.829757
4477.304802
4481.343162
4419.062112
4470.604761
4441.898428
4457.960255
4438.239046
4445.438499
4446.526824
4438.869765
4421.859336
4429.776483
4435.143380
4426.019704
4410.455652
4419.440637
4418.001922
4444.536881
4433.985751
4429.054367
4442.546808
4424.676453
4419.053744
4422.739547
4428.209789
4432.461632
4355.586285
4438.887798
4447.684416
4429.227325
4415.206466
4472.165847
4456.986720
4418.563733
4450.623472
4426.262679
4417.919794
4439.637359
4472.057565
4451.914352
4445.105829
4458.692832
4453.255361
4469.100463
4404.829180
4428.908998
4420.928805
4413.829646
4417.002550
4426.102842
4425.369530
4416.756510
4429.308358
4409.973360
4449.543379
4420.201431
4409.398261
4408.044561
4504.663885
4367.143467
4430.796863
4410.930556
4448.638472
4503.504549
4448.829716
4433.132612
4470.420015
4412.574913
4467.065352
4432.305835
4440.140029
4459.181122
4468.798921
4436.021566
4444.883907
4421.371675
4440.369969
4446.097797
4415.588870
4418.683451
4413.055514
4442.252048
4436.404379
4444.124693
4426.819420
4435.627469
4403.764616
4416.976287
4459.908146
4400.298004
4446.854114
4441.310678
4474.727539
4587.517386
4454.994121
4493.187589
4480.956640
4412.904100
4434.708781
4463.854788
4458.613834
4484.241183
4465.551206
4436.405371
4457.332206
4459.402977
4423.964235
4439.143394
4451.390331
4410.579880
4428.464305
4422.693907
4412.092763
4423.101883
4426.704385
4430.616301
4427.231779
4441.233257
4438.339356
4455.489094
4394.216162
4454.146398
4409.063239
4387.346111
4443.046678
4554.740455
4419.143359
4499.446669
4550.984024
4462.454749
4392.324545
4456.472568
4403.409301
4466.044107
4441.621270
4444.981088
4457.724649
4447.149956
4462.139043
4440.219123
4408.105890
4442.997332
4420.211799
4407.226545
4415.327159
4444.666651
4430.174427
4435.110242
4432.189535
4425.708414
4428.682989
4431.839404
4446.831788
4436.981025
4465.267848
4433.864988
4386.700410
4402.606127
4498.817320
4385.447615
4487.560566
4494.747686
4483.497347
4476.190097
4440.708176
4411.968525
4430.785953
4443.641328
4447.152244
4431.206588
4446.204899
4441.495345
4444.876328
4441.060430
4416.647850
4416.845495
4419.302953
4414.842152
4427.949461
4425.550379
4437.313399
4415.218984
4435.762888
4419.152105
4433.403075
4432.564586
4546.857747
4410.085089
4481.551995
4546.690037
4479.816246
4502.195632
4483.697091
4491.234213
4481.987360
4465.663838
4456.330301
4400.567988
4474.818450
4443.754265
4441.016206
4458.386639
4459.902886
4440.651132
4439.060529
4403.599200
4419.813658
4423.304291
4410.021063
4446.599328
4439.463332
4428.109082
4428.610767
4442.553947
4426.173077
4424.728298
4442.428215
4398.288734
4459.690328
4486.042806
4475.230739
4480.829417
4467.934241
4529.353222
4490.328026
4494.802207
4491.118841
4476.453787
4468.534618
4370.530373
4390.762690
4442.193967
4434.888773
4430.115099
4450.394385
4439.978871
4442.297187
4449.850575
4422.111251
4417.269487
4412.005062
4416.105763
4421.203099
4436.230512
4431.542346
4420.157870
4425.152629
4436.382734
4413.451888
4455.335520
4407.462322
4450.682609
4492.135883
4452.148018
4499.196457
4483.405128
4484.663107
4487.739305
4477.355617
4448.712611
4458.771625
4443.992423
4416.287760
4452.272984
4431.575281
4446.509943
4449.487807
4458.570159
4431.045456
4439.299661
4407.858033
4418.705523
4419.122727
4447.822415
4439.351149
4421.338436
4420.633299
4440.672756
4422.821217
4440.254566
4434.521621
4473.333579
4432.596515
4464.363380
4465.965554
4485.865935
4466.019778
4467.531606
4473.098883
4477.025359
4460.230790
4492.285177
4481.273877
4415.954001
4452.603115
4440.582392
4457.070893
4428.447837
4437.332459
4433.292475
4470.967727
4425.081644
4425.882213
4417.795559
4411.211652
4402.739415
4425.365494
4424.497382
4425.387886
4426.386469
4426.547494
4427.202959
4427.400889
4427.894872
4428.017191
4428.498848
4428.446975
4428.661975
4428.530529
4429.160729
4408.986206
4422.942086
4422.515908
4424.027159
4425.108144
4425.464532
4426.440369
4426.523113
4427.343173
4427.438419
4428.075935
4428.105907
4428.442798
4428.120034
4431.347704
4414.303046
4423.249927
4422.160751
4424.004922
4425.174929
4425.317981
4426.534362
4426.431074
4427.573981
4427.240797
4428.373532
4427.944363
4428.760906
4428.917320
4430.150255
4417.346604
4424.325609
4423.177875
4424.643984
4425.247743
4425.836259
4426.638369
4426.742784
4427.636303
4427.564157
4428.470241
4428.235257
4429.535924
4429.166913
4431.529643
4420.569844
4424.935857
4424.358715
4424.986931
4425.879598
4426.010779
4426.909444
4427.022252
4427.787495
4427.847728
4428.581885
4428.458822
4429.602544
4429.051598
4431.505772
4422.144302
4425.742786
4425.273018
4425.450033
4426.563261
4426.223767
4427.531948
4427.037931
4428.312527
4427.863152
4428.998010
4428.690440
4429.472319
4428.856381
4430.637348
4423.674601
4426.445303
4425.982729
4426.175445
4426.879419
4426.751395
4427.706477
4427.442463
4428.546891
4428.157197
4429.223501
4428.762051
4429.658783
4428.352979
4429.646825
4424.896997
4427.094424
4426.568230
4426.765851
4427.310660
4427.288441
4427.944613
4427.982758
4428.584504
4428.629210
4429.444055
4428.978580
4430.501183
4428.497919
4429.543703
4425.874779
4427.584253
4427.177744
4427.289240
4427.707172
4427.643118
4428.322319
4428.137627
4429.039835
4428.847750
4429.631199
4429.668360
4430.187499
4430.180619
4429.943424
4426.879988
4428.056567
4427.632278
4427.778863
4428.062322
4428.139751
4428.508028
4428.713510
4429.050670
4429.325641
4429.826039
4430.178486
4430.782308
4430.969194
4430.874135
4427.435396
4428.519257
4427.967778
4428.299022
4428.280537
4428.552949
4428.685790
4429.002495
4429.199524
4429.718345
4429.841713
4430.421739
4431.097267
4431.256867
4431.557501
4428.114472
4428.847556
4428.311431
4428.669425
4428.584454
4428.874891
4428.985050
4429.201284
4429.571848
4429.578979
4430.318913
4430.427571
4431.235398
4431.521937
4431.436651
4428.661719
4429.028561
4428.809804
4428.842761
4428.945656
4429.044929
4429.200043
4429.416629
4429.574241
4429.991336
4430.154045
4430.421272
4431.014794
4431.618876
4431.448384
4444.762221
4423.870862
4428.591501
4426.329837
4473.624737
4444.971494
4450.910698
4490.517647
4485.763468
4489.106052
4481.409901
4415.921746
4470.299966
4460.200932
4407.826187
4409.932104
4429.084913
4429.293015
4429.024014
4429.137674
4429.191545
4429.266710
4429.435946
4429.567921
4429.774022
4429.956625
4430.057001
4430.708923
4430.550159
4431.423280
4431.902656
4435.929904
4425.844741
4436.468113
4430.074856
4422.566883
4468.957026
4459.883757
4467.670311
4473.567640
4440.756740
4452.003073
4430.038244
4457.277163
4483.951817
4407.411233
4402.151619
4429.340451
4429.498364
4429.278722
4429.381780
4429.319917
4429.495220
4429.551757
4429.641032
4429.917349
4429.874197
4430.444747
4429.968717
4430.409778
4430.352109
4428.789016
4439.525351
4442.103061
4407.381918
4436.537183
4405.788531
4440.392462
4433.574115
4470.430905
4472.863101
4459.620441
4450.015349
4426.764019
4431.992833
4466.470386
4381.771111
4411.719950
4429.626902
4429.711617
4429.430238
4429.578911
4429.544762
4429.649186
4429.671470
4429.862095
4429.933387
4430.047947
4430.145132
4430.251897
4430.743025
4429.636603
4430.697938
4406.288266
4442.559491
4421.470964
4452.942451
4433.789417
4425.363630
4443.624059
4455.315633
4469.711838
4457.436278
4470.690131
4462.992322
4414.215660
4435.146097
4422.230904
4404.469952
4429.833103
4429.841651
4429.629465
4429.796613
4429.579322
4429.843691
4429.739207
4429.924153
4429.881676
4430.192701
4430.046219
4430.312567
4429.669201
4430.164887
4428.940224
4427.590681
4403.534593
4429.498380
4448.882044
4440.699552
4453.796532
4464.290092
4460.179042
4456.956757
4453.312985
4463.255204
4459.489026
4418.476064
4432.933224
4421.465362
4410.480077
4429.984816
4429.988866
4429.756941
4429.916389
4429.749177
4430.024059
4429.741391
4430.169895
4429.984134
4430.127216
4430.237175
4430.003157
4430.831102
4430.748024
4428.999159
4438.906862
4441.974081
4391.304398
4439.692914
4416.770494
4433.454717
4444.134412
4414.594238
4459.025513
4463.681887
4447.337859
4449.434441
4456.949890
4413.250300
4423.579573
4418.017516
4430.066357
4430.108826
4429.877659
4430.061800
4429.854835
4430.012380
4429.987776
4430.049450
4429.990924
4430.405673
4429.843443
4430.919369
4429.070156
4431.458691
4432.562702
4451.964270
4416.164975
4434.512092
4460.228823
4453.008999
4430.469456
4448.391175
4447.598961
4438.997201
4416.274943
4457.264842
4457.554999
4450.731713
4439.708962
4417.628030
4399.232822
4430.132001
4430.202232
4429.982049
4430.161938
4429.970094
4430.222046
4429.963571
4430.271743
4430.127580
4430.241040
4430.359594
4430.030161
4431.298027
4430.667145
4429.611867
4410.103056
4439.229833
4425.887711
4423.397252
4424.761699
4442.541134
4433.898221
4443.860552
4417.369403
4419.989519
4442.966578
4412.114508
4475.648446
4452.923498
4427.900114
4383.593413
4430.252596
4430.193892
4430.212585
4430.163105
4430.164692
4430.179416
4430.171793
4430.211788
4430.271487
4430.202529
4430.488443
4430.469230
4430.037808
4430.486427
4432.067020
4452.980777
4418.897136
4425.185916
4421.802262
4447.961690
4423.181804
4432.725501
4422.225643
4438.173208
4423.044131
4392.024715
4469.137725
4457.464669
4452.815192
4437.136913
4441.607587
4430.362871
4430.253494
4430.339998
4430.233137
4430.364926
4430.183358
4430.434930
4430.158053
4430.386472
4430.450160
4430.137825
4430.468178
4430.734756
4430.883763
4431.624788
4414.691857
4415.982008
4431.152375
4432.580923
4430.671209
4425.703759
4409.520500
4434.206043
4441.510757
4419.711852
4417.150193
4419.066441
4453.312952
4459.606352
4419.719047
4460.101947
4430.469456
4430.319591
4430.469540
4430.342390
4430.416786
4430.395051
4430.325771
4430.438192
4430.435538
4430.151281
4430.734911
4430.177617
4429.716374
4430.205082
4429.084918
4422.038705
4409.061543
4430.194045
4461.954231
4425.206354
4431.516435
4420.695220
4435.287156
4424.782683
4430.726337
4451.221512
4429.998293
4436.259074
4448.616231
4440.283151
4474.782124
4430.535860
4430.402503
4430.528686
4430.471952
4430.522894
4430.456986
4430.590186
4430.362317
4430.515691
4430.586401
4430.195646
4430.424997
4430.371097
4429.521829
4431.111319
4423.835447
4446.137489
4448.655334
4462.066116
4453.230264
4451.248448
4421.176831
4418.203061
4423.881536
4437.309920
4469.636838
4476.841062
4486.438851
4478.953055
4496.022915
4398.065671
4430.623633
4430.503336
4430.631330
4430.573612
4430.649388
4430.563265
4430.602252
4430.622347
4430.570450
4430.476636
4430.634027
4430.370241
4430.096409
4429.787346
4429.068715
4422.797882
4441.150110
4400.348796
4394.458129
4419.517294
4433.884094
4448.738083
4442.126062
4451.415323
4441.885630
4453.730533
4455.390248
4457.974300
4452.786263
4480.060729
4459.958144
4430.699360
4430.627522
4430.656833
4430.762302
4430.665001
4430.811525
4430.702052
4430.710808
4430.753243
4430.650027
4430.756590
4430.448297
4430.799902
4430.628985
4430.533472
4438.472141
4458.347837
4423.806133
4439.897998
4431.965712
4436.599246
4440.574808
4413.627735
4415.766241
4446.437827
4455.334436
4457.691358
4438.119770
4444.848017
4448.022922
4453.798197
4430.861122
4430.713923
4430.741790
4430.899894
4430.786530
4430.899115
4430.826103
4430.954122
4430.727433
4431.045103
4430.495430
4431.202532
4430.358055
4430.852597
4432.679302
4436.013483
4431.075767
4438.022839
4425.296752
4428.021371
4446.350258
4425.957939
4435.921156
4435.298795
4441.448627
4450.516477
4445.665837
4460.463101
4462.720910
4466.271659
4455.136027
4430.964206
4430.748625
4430.912044
4430.962213
4430.956104
4431.051749
4430.964840
4431.068370
4431.006011
4430.978220
4431.288861
4430.808708
4431.735895
4431.460014
4431.023630
4443.052495
4415.709691
4429.747969
4406.045053
4429.957542
4428.504998
4424.968528
4450.208126
4468.136984
4461.605597
4465.480709
4479.708049
4463.537339
4465.675947
4459.330326
4453.449563
4431.221730
4430.719837
4431.179996
4430.889174
4431.293866
4430.933100
4431.385215
4430.941452
4431.453754
4430.996295
4431.446857
4431.400223
4431.782675
4431.679399
4434.111892
4415.301075
4448.967291
4429.856838
4433.055958
4457.362754
4419.595241
4448.058716
4411.527355
4419.739362
4409.274363
4443.801291
4437.677096
4455.010463
4467.478332
4464.461953
4453.991802
4431.408753
4430.756315
4431.353689
4430.999683
4431.467341
4431.044491
4431.539309
4431.148885
4431.501129
4431.268063
4431.599394
4431.465334
4431.930336
4432.016027
4433.707059
4430.520828
4454.979528
4410.996118
4424.789991
4422.958671
4431.856125
4451.937553
4438.676044
4443.733597
4462.295237
4420.756363
4434.797638
4432.291664
4415.778106
4459.522648
4450.538894
4431.601577
4431.015110
4431.308723
4431.320384
4431.341454
4431.461501
4431.415664
4431.480194
4431.549938
4431.414019
4431.728096
4431.456375
4432.047243
4432.393206
4431.564126
4429.563983
4444.505801
4429.129020
4444.788290
4424.665787
4448.862019
4415.362372
4419.965183
4460.678358
4455.432337
4460.446371
4464.593497
4456.675899
4460.199498
4450.942496
4452.815572
4431.704681
4431.193527
4431.291873
4431.516492
4431.450351
4431.578469
4431.540951
4431.685455
4431.556583
4431.790587
4431.457198
4432.046154
4431.124793
4432.239193
4432.681201
4439.654813
4447.058741
4416.690537
4417.460277
4436.529440
4440.463204
4440.150014
4435.771895
4445.883967
4420.454755
4433.092136
4473.782440
4455.188956
4454.123913
4476.508710
4449.265327
4431.957917
4431.268533
4431.501055
4431.589518
4431.567776
4431.726684
4431.662204
4431.839026
4431.676890
4431.899538
4431.737649
4431.595989
4432.024694
4431.688617
4430.936014
4427.199120
4437.189498
4433.565995
4411.266784
4408.930529
4396.055777
4429.813191
4434.581032
4425.895011
4434.971636
4442.735535
4454.471282
4451.790361
4456.724579
4464.389709
4451.801806
4432.197586
4431.411509
4431.553149
4431.808044
4431.620909
4431.922214
4431.739917
4431.945424
4431.970720
4431.786145
4431.963305
4431.850385
4431.509074
4431.131740
4431.216357
4435.348308
4434.111499
4426.995901
4419.961233
4422.368002
4430.820234
4448.329517
4460.955602
4422.627806
4443.518342
4437.120900
4447.910593
4451.371836
4437.668451
4449.483143
4448.614249
4432.372675
4431.561960
4431.656817
4431.893180
4431.755170
4432.018043
4431.891860
4432.166819
4431.841948
4432.405432
4431.803620
4432.048625
4431.669202
4431.309157
4430.819554
4437.367003
4427.307038
4436.736225
4425.762746
4440.451636
4438.832080
4454.508140
4457.394487
4459.673301
4423.702535
4439.242680
4437.330138
4437.183853
4424.154443
4451.798296
4447.548483