# vtk DataFile Version 2.0
mfree iwf
ASCII

DATASET UNSTRUCTURED_GRID
POINTS 10980 float
0.000000 0.000445 0.000000
0.000000 0.000450 0.000000
0.000000 0.000455 0.000000
-0.000000 0.000460 0.000000
-0.000000 0.000465 0.000000
-0.000000 0.000470 0.000000
-0.000000 0.000475 0.000000
-0.000000 0.000480 0.000000
0.000000 0.000485 0.000000
0.000000 0.000490 0.000000
-0.000000 0.000496 0.000000
0.000002 0.000500 0.000000
0.000880 0.000926 0.000000
0.000889 0.000926 0.000000
0.000936 0.000919 0.000000
0.000941 0.000917 0.000000
0.000941 0.000917 0.000000
0.000948 0.000916 0.000000
0.000955 0.000914 0.000000
0.000951 0.000915 0.000000
0.000965 0.000912 0.000000
0.000991 0.000904 0.000000
0.000997 0.000900 0.000000
0.001000 0.000898 0.000000
0.001004 0.000895 0.000000
0.001008 0.000892 0.000000
0.001012 0.000889 0.000000
0.001016 0.000885 0.000000
0.001019 0.000883 0.000000
0.001024 0.000879 0.000000
0.001029 0.000875 0.000000
0.001050 0.000866 0.000000
0.000005 0.000445 0.000000
0.000005 0.000450 0.000000
0.000005 0.000455 0.000000
0.000005 0.000460 0.000000
0.000005 0.000465 0.000000
0.000005 0.000470 0.000000
0.000005 0.000475 0.000000
0.000005 0.000480 0.000000
0.000005 0.000485 0.000000
0.000006 0.000490 0.000000
0.000003 0.000496 0.000000
0.000006 0.000499 0.000000
0.000931 0.000919 0.000000
0.000937 0.000911 0.000000
0.000971 0.000908 0.000000
0.000978 0.000906 0.000000
0.000983 0.000904 0.000000
0.000986 0.000903 0.000000
0.000988 0.000901 0.000000
0.000992 0.000898 0.000000
0.000994 0.000895 0.000000
0.001000 0.000892 0.000000
0.001006 0.000888 0.000000
0.001011 0.000884 0.000000
0.001015 0.000879 0.000000
0.001023 0.000874 0.000000
0.001026 0.000871 0.000000
0.001031 0.000868 0.000000
0.001042 0.000866 0.000000
0.001044 0.000865 0.000000
0.001039 0.000868 0.000000
0.001048 0.000864 0.000000
0.000010 0.000445 0.000000
0.000010 0.000450 0.000000
0.000010 0.000455 0.000000
0.000010 0.000460 0.000000
0.000010 0.000465 0.000000
0.000010 0.000469 0.000000
0.000010 0.000475 0.000000
0.000011 0.000480 0.000000
0.000009 0.000486 0.000000
0.000012 0.000489 0.000000
0.000008 0.000497 0.000000
0.000011 0.000498 0.000000
0.000931 0.000915 0.000000
0.000940 0.000909 0.000000
0.000957 0.000909 0.000000
0.000964 0.000908 0.000000
0.000968 0.000907 0.000000
0.000974 0.000906 0.000000
0.000965 0.000901 0.000000
0.000974 0.000899 0.000000
0.000980 0.000898 0.000000
0.000985 0.000896 0.000000
0.000995 0.000891 0.000000
0.000999 0.000888 0.000000
0.001000 0.000884 0.000000
0.001004 0.000880 0.000000
0.001010 0.000879 0.000000
0.001020 0.000875 0.000000
0.001034 0.000867 0.000000
0.001036 0.000866 0.000000
0.001042 0.000860 0.000000
0.001044 0.000855 0.000000
0.000015 0.000445 0.000000
0.000016 0.000450 0.000000
0.000014 0.000456 0.000000
0.000017 0.000460 0.000000
0.000014 0.000469 0.000000
0.000015 0.000464 0.000000
0.000014 0.000476 0.000000
0.000016 0.000480 0.000000
0.000014 0.000485 0.000000
0.000016 0.000489 0.000000
0.000014 0.000495 0.000000
0.000016 0.000497 0.000000
0.000025 0.000500 0.000000
0.000944 0.000910 0.000000
0.000959 0.000908 0.000000
0.000955 0.000904 0.000000
0.000970 0.000900 0.000000
0.000978 0.000904 0.000000
0.000982 0.000893 0.000000
0.000988 0.000892 0.000000
0.000984 0.000888 0.000000
0.000992 0.000889 0.000000
0.001002 0.000876 0.000000
0.001006 0.000884 0.000000
0.001011 0.000873 0.000000
0.001016 0.000874 0.000000
0.001017 0.000869 0.000000
0.001022 0.000869 0.000000
0.001027 0.000864 0.000000
0.001031 0.000862 0.000000
0.001035 0.000859 0.000000
0.001043 0.000852 0.000000
0.000019 0.000445 0.000000
0.000021 0.000450 0.000000
0.000018 0.000455 0.000000
0.000022 0.000459 0.000000
0.000019 0.000469 0.000000
0.000025 0.000467 0.000000
0.000018 0.000475 0.000000
0.000022 0.000478 0.000000
0.000019 0.000486 0.000000
0.000021 0.000491 0.000000
0.000021 0.000497 0.000000
0.000022 0.000499 0.000000
0.000039 0.000500 0.000000
0.000942 0.000898 0.000000
0.000948 0.000905 0.000000
0.000956 0.000899 0.000000
0.000962 0.000904 0.000000
0.000972 0.000895 0.000000
0.000973 0.000891 0.000000
0.000988 0.000886 0.000000
0.000978 0.000889 0.000000
0.000989 0.000880 0.000000
0.000992 0.000872 0.000000
0.000997 0.000870 0.000000
0.001003 0.000870 0.000000
0.001012 0.000867 0.000000
0.001018 0.000859 0.000000
0.001024 0.000860 0.000000
0.001028 0.000857 0.000000
0.001036 0.000854 0.000000
0.001039 0.000857 0.000000
0.001040 0.000849 0.000000
0.000024 0.000445 0.000000
0.000026 0.000450 0.000000
0.000024 0.000455 0.000000
0.000026 0.000461 0.000000
0.000021 0.000465 0.000000
0.000024 0.000472 0.000000
0.000023 0.000476 0.000000
0.000026 0.000481 0.000000
0.000023 0.000485 0.000000
0.000026 0.000488 0.000000
0.000026 0.000493 0.000000
0.000027 0.000500 0.000000
0.000910 0.000924 0.000000
0.000947 0.000908 0.000000
0.000952 0.000908 0.000000
0.000967 0.000897 0.000000
0.000961 0.000893 0.000000
0.000978 0.000894 0.000000
0.000979 0.000884 0.000000
0.000969 0.000889 0.000000
0.000979 0.000880 0.000000
0.000994 0.000883 0.000000
0.000997 0.000878 0.000000
0.000995 0.000880 0.000000
0.001007 0.000875 0.000000
0.001008 0.000870 0.000000
0.001021 0.000864 0.000000
0.001016 0.000864 0.000000
0.001031 0.000855 0.000000
0.001023 0.000855 0.000000
0.001033 0.000850 0.000000
0.001037 0.000844 0.000000
0.000030 0.000445 0.000000
0.000031 0.000450 0.000000
0.000029 0.000456 0.000000
0.000031 0.000460 0.000000
0.000031 0.000464 0.000000
0.000028 0.000469 0.000000
0.000032 0.000472 0.000000
0.000030 0.000477 0.000000
0.000030 0.000486 0.000000
0.000031 0.000492 0.000000
0.000033 0.000497 0.000000
0.000030 0.000499 0.000000
0.000048 0.000500 0.000000
0.000936 0.000905 0.000000
0.000952 0.000896 0.000000
0.000960 0.000897 0.000000
0.000957 0.000893 0.000000
0.000965 0.000892 0.000000
0.000972 0.000881 0.000000
0.000986 0.000876 0.000000
0.000984 0.000882 0.000000
0.000989 0.000875 0.000000
0.000998 0.000873 0.000000
0.001004 0.000861 0.000000
0.001005 0.000866 0.000000
0.001009 0.000862 0.000000
0.001014 0.000855 0.000000
0.001013 0.000860 0.000000
0.001022 0.000850 0.000000
0.001027 0.000851 0.000000
0.001032 0.000847 0.000000
0.001035 0.000841 0.000000
0.000035 0.000445 0.000000
0.000035 0.000450 0.000000
0.000034 0.000456 0.000000
0.000038 0.000455 0.000000
0.000034 0.000467 0.000000
0.000037 0.000472 0.000000
0.000032 0.000479 0.000000
0.000042 0.000479 0.000000
0.000035 0.000483 0.000000
0.000034 0.000488 0.000000
0.000037 0.000491 0.000000
0.000036 0.000498 0.000000
0.000868 0.000924 0.000000
0.000906 0.000925 0.000000
0.000946 0.000899 0.000000
0.000952 0.000890 0.000000
0.000966 0.000885 0.000000
0.000958 0.000882 0.000000
0.000973 0.000885 0.000000
0.000974 0.000877 0.000000
0.000982 0.000877 0.000000
0.000980 0.000870 0.000000
0.000987 0.000864 0.000000
0.000996 0.000861 0.000000
0.001000 0.000864 0.000000
0.001004 0.000855 0.000000
0.001018 0.000853 0.000000
0.001012 0.000842 0.000000
0.001023 0.000845 0.000000
0.001026 0.000845 0.000000
0.001029 0.000842 0.000000
0.001031 0.000837 0.000000
0.000040 0.000445 0.000000
0.000041 0.000450 0.000000
0.000036 0.000462 0.000000
0.000040 0.000458 0.000000
0.000041 0.000463 0.000000
0.000040 0.000468 0.000000
0.000041 0.000473 0.000000
0.000037 0.000477 0.000000
0.000041 0.000488 0.000000
0.000042 0.000491 0.000000
0.000041 0.000497 0.000000
0.000044 0.000498 0.000000
0.000730 0.000850 0.000000
0.000933 0.000911 0.000000
0.000938 0.000901 0.000000
0.000948 0.000886 0.000000
0.000962 0.000887 0.000000
0.000968 0.000879 0.000000
0.000963 0.000882 0.000000
0.000978 0.000874 0.000000
0.000986 0.000870 0.000000
0.000991 0.000867 0.000000
0.000983 0.000866 0.000000
0.000992 0.000859 0.000000
0.001000 0.000858 0.000000
0.001007 0.000851 0.000000
0.001009 0.000857 0.000000
0.001011 0.000852 0.000000
0.001016 0.000848 0.000000
0.001019 0.000841 0.000000
0.001026 0.000839 0.000000
0.001029 0.000833 0.000000
0.000044 0.000445 0.000000
0.000047 0.000450 0.000000
0.000044 0.000454 0.000000
0.000046 0.000461 0.000000
0.000044 0.000467 0.000000
0.000046 0.000474 0.000000
0.000046 0.000479 0.000000
0.000040 0.000483 0.000000
0.000052 0.000486 0.000000
0.000045 0.000483 0.000000
0.000048 0.000493 0.000000
0.000050 0.000498 0.000000
0.000735 0.000856 0.000000
0.000927 0.000919 0.000000
0.000951 0.000900 0.000000
0.000957 0.000887 0.000000
0.000954 0.000884 0.000000
0.000968 0.000875 0.000000
0.000970 0.000871 0.000000
0.000975 0.000871 0.000000
0.000978 0.000864 0.000000
0.000988 0.000860 0.000000
0.000995 0.000866 0.000000
0.001001 0.000852 0.000000
0.000992 0.000853 0.000000
0.001001 0.000848 0.000000
0.001010 0.000847 0.000000
0.001016 0.000844 0.000000
0.001014 0.000838 0.000000
0.001020 0.000837 0.000000
0.001023 0.000835 0.000000
0.001026 0.000829 0.000000
0.000049 0.000445 0.000000
0.000052 0.000450 0.000000
0.000048 0.000455 0.000000
0.000054 0.000458 0.000000
0.000047 0.000465 0.000000
0.000050 0.000471 0.000000
0.000052 0.000467 0.000000
0.000051 0.000477 0.000000
0.000047 0.000488 0.000000
0.000052 0.000491 0.000000
0.000057 0.000492 0.000000
0.000053 0.000498 0.000000
0.000813 0.000908 0.000000
0.000919 0.000915 0.000000
0.000932 0.000907 0.000000
0.000948 0.000889 0.000000
0.000956 0.000879 0.000000
0.000963 0.000876 0.000000
0.000958 0.000872 0.000000
0.000965 0.000871 0.000000
0.000975 0.000860 0.000000
0.000974 0.000866 0.000000
0.000978 0.000858 0.000000
0.000988 0.000855 0.000000
0.000994 0.000849 0.000000
0.000996 0.000854 0.000000
0.001003 0.000844 0.000000
0.001005 0.000838 0.000000
0.001007 0.000842 0.000000
0.001016 0.000834 0.000000
0.001020 0.000830 0.000000
0.001023 0.000825 0.000000
0.000054 0.000445 0.000000
0.000057 0.000450 0.000000
0.000052 0.000455 0.000000
0.000052 0.000463 0.000000
0.000059 0.000467 0.000000
0.000053 0.000473 0.000000
0.000058 0.000476 0.000000
0.000056 0.000480 0.000000
0.000052 0.000483 0.000000
0.000057 0.000486 0.000000
0.000056 0.000497 0.000000
0.000059 0.000496 0.000000
0.000835 0.000915 0.000000
0.000926 0.000921 0.000000
[...]
POINT_DATA 10980
SCALARS density float 1
LOOKUP_TABLE default
4427.934996
4434.416515
4427.657015
4426.770654
4431.767274
4424.355675
4433.628998
4429.622544
4428.787941
4417.585555
4430.082167
4404.642231
4425.207771
4420.998403
4417.332634
4437.096137
4438.637456
4436.888713
4449.876711
4448.828675
4425.372913
4429.600435
4397.412597
4431.822367
4428.528514
4410.632846
4443.383559
4435.068224
4413.928668
4447.193478
4420.789547
4405.196565
4429.960043
4425.904000
4422.910684
4429.429639
4437.601842
4423.212864
4429.028939
4423.326616
4423.997194
4435.638641
4449.890853
4409.028492
4415.823139
4412.238947
4413.613200
4409.301479
4421.799627
4417.204979
4441.651780
4456.920588
4436.080568
4430.854690
4423.174208
4387.791325
4433.773374
4402.238593
4433.341511
4463.857446
4421.366414
4431.846840
4405.659414
4402.262326
4422.278113
4428.083817
4445.670093
4422.829329
4421.624590
4422.701962
4450.454545
4394.458734
4463.819019
4383.383451
4449.104115
4398.194660
4460.257171
4457.545437
4446.640431
4405.323887
4423.719905
4402.319640
4455.633896
4426.863546
4424.012533
4392.516295
4425.295775
4434.198832
4388.934731
4428.459735
4443.279523
4407.981164
4422.396218
4430.547242
4454.947943
4418.299807
4422.548314
4433.942680
4433.432484
4418.881934
4417.350658
4443.319750
4454.860109
4388.380793
4473.334645
4385.818051
4508.405012
4405.036936
4435.796225
4399.003532
4423.685280
4438.186909
4483.330759
4452.861549
4450.275929
4408.822543
4424.866520
4415.916409
4432.150829
4465.054972
4416.532162
4455.423029
4426.536898
4462.491984
4437.325007
4356.039905
4501.485876
4448.405721
4437.012645
4431.405726
4435.000716
4442.332301
4421.655922
4455.948932
4429.642425
4448.439280
4469.302607
4370.623118
4468.475227
4435.145615
4418.887911
4449.390017
4466.143587
4403.325282
4459.164660
4425.626921
4455.703765
4438.440026
4448.294793
4401.880421
4401.872921
4418.962838
4399.982857
4410.247661
4405.974719
4457.155968
4456.843001
4379.584769
4384.149711
4419.008766
4434.049256
4437.505257
4431.633097
4406.416949
4433.111851
4418.933265
4465.205111
4359.629479
4431.753783
4472.714815
4413.391273
4425.242404
4432.039885
4419.962349
4375.247078
4382.571672
4471.003237
4402.905189
4409.672714
4409.291682
4488.714687
4460.046529
4439.149840
4433.333493
4433.401447
4459.454168
4392.875649
4434.581197
4427.540317
4427.330900
4492.336960
4409.358750
4424.764179
4429.493596
4424.387147
4445.533036
4439.976404
4436.661997
4385.032427
4452.129672
4442.919818
4409.458532
4457.506168
4419.718933
4423.603218
4439.688932
4463.561034
4407.559764
4402.215535
4471.209472
4419.696400
4452.786472
4430.760671
4446.655996
4456.306543
4451.480339
4447.004656
4400.025711
4405.053339
4461.192629
4428.354800
4374.397093
4420.720205
4440.416687
4431.480546
4414.522984
4435.086973
4436.665893
4434.964527
4437.398581
4457.365086
4429.635760
4406.927828
4433.333676
4411.963718
4446.374653
4419.040972
4424.723518
4385.372491
4423.643870
4444.644323
4454.347087
4414.087765
4411.734957
4413.133019
4434.301868
4402.369649
4430.514279
4409.797703
4449.342941
4446.267558
4471.850530
4457.229727
4455.375441
4404.167710
4415.055528
4431.207298
4436.204764
4404.214481
4452.613436
4431.644757
4436.689180
4435.004635
4417.729687
4453.519154
4430.036772
4431.640829
4423.739232
4425.788972
4460.776441
4410.846298
4432.533608
4407.388014
4444.995386
4438.783429
4432.796277
4428.869584
4439.444643
4453.952193
4403.452510
4437.672391
4420.941974
4398.744787
4455.932868
4411.805523
4391.358394
4429.912504
4431.057986
4435.645695
4417.563739
4414.359311
4421.455559
4400.071505
4426.491087
4447.232103
4423.285336
4449.083080
4418.986322
4465.443317
4434.597583
4434.444319
4436.439427
4415.200949
4434.566288
4419.930485
4434.484750
4427.857114
4454.635197
4420.632544
4445.605337
4443.478808
4418.387621
4442.035871
4447.370328
4417.848791
4428.285627
4443.142224
4422.279359
4443.355882
4425.679074
4429.393239
4429.530003
4427.817219
4441.099166
4445.047670
4457.810655
4421.251225
4374.876954
4384.372781
4422.168715
4521.749092
4407.120694
4434.197719
4425.980671
4393.782402
4444.909447
4436.694532
4387.034858
4458.327197
4449.858537
4426.892140
4426.177225
4442.805081
4445.019159
4395.925984
4458.796299
4437.769978
4454.222826
4404.658632
4431.103148
4415.885562
4429.641967
4436.133506
4431.417746
4440.778549
4407.918585
4447.706284
4458.461731
4425.847431
4462.284315
4476.124571
4360.030156
4408.437691
4396.055124
4429.993784
4430.398718
4428.368113
4398.674721
4458.109835
4444.012573
4407.129358
4424.862194
4430.394196
4421.363456
4417.704142
4434.841222
4422.034870
4448.063235
4457.042952
4393.849357
4429.141393
4449.585912
4422.925660
4423.298158
4420.194348
4427.179352
4416.580663
4391.155558
4438.057858
4431.131701
4406.420184
4436.028665
4437.767263
4433.360313
4437.120348
4429.263769
4411.198192
4428.063335
4416.914974
4385.646972
4380.127147
4430.537796
4420.191876
4442.473761
4439.629587
4438.057501
4448.538116
4411.199436
4438.221159
4443.583382
4391.059069
4429.353817
4445.549842
4425.670396
4436.517643
4431.516039
4443.677884
4409.932440
4439.994786
4415.312571
4445.823487
4470.514346
4423.391270
4378.359143
4453.815195
4377.767804
4476.077592
4423.403662
4414.411738
4432.373108
4412.751433
4388.878218
4441.193296
4385.164113
4444.018757
4415.544346
4420.527472
4449.309236
4451.210649
4415.478126
4413.448738
4459.004114
4425.215826
4414.782755
4443.031384
4443.533402
4412.899073
4434.140621
4428.625023
4428.130467
4404.281606
4452.064113
4444.898391
4421.618428
4431.432098
4448.883565
4422.899165
4405.290586
4436.591737
4440.781018
4428.654006
4433.825272
4438.341309
4460.942500
4452.418636
4451.845086
4442.334081
4447.962785
4384.158519
4422.007572
4431.033004
4417.566547
4443.109953
4447.661787
4436.192415
4424.969422
4427.005771
4406.679544
4437.152218
4432.855865
4435.697067
4420.759046
4474.340772
4388.095474
4412.923225
4412.606378
4443.722643
4449.606479
4454.164388
4365.250151
4425.335135
4443.782350
4431.334214
4416.637903
4430.393597
4441.505748
4437.491947
4432.760614
4400.485036
4443.613842
4406.906312
4419.646516
4423.568331
4437.696607
4416.981518
4402.909440
4417.402697
4411.994711
4433.596806
4419.358077
4435.916685
4419.485729
4412.433150
4433.311674
4460.231639
4436.046435
4410.147238
4445.597618
4383.483568
4443.829486
4428.059543
4464.588864
4422.757291
4427.694763
4431.752244
4423.818296
4434.677658
4435.957634
4481.744835
4431.570405
4420.312267
4451.777178
4419.864977
4455.021610
4439.608164
4424.016524
4423.804628
4413.230319
4415.666136
4436.163101
4427.301593
4449.067869
4424.950590
4442.214420
4438.224037
4430.665650
4427.893086
4433.759535
4428.445039
4449.573665
4441.876405
4439.889665
4456.365055
4381.506858
4439.411922
4445.999726
4433.357158
4430.879589
4442.502250
4438.066932
4465.634565
4401.908357
4476.322139
4462.745471
4426.424459
4436.510356
4416.036077
4440.673442
4436.546123
4431.799309
4425.443798
4425.914950
4440.315990
4423.613302
4427.435173
4424.744299
4424.320156
4433.683898
4413.419257
4435.328941
4419.605900
4435.324653
4430.036280
4434.186915
4455.044213
4420.302928
4403.210731
4436.284318
4416.172874
4423.063183
4426.692370
4439.001960
4421.976197
4425.978257
4424.377606
4425.526771
4434.510547
4463.198423
4447.764608
4418.585460
4430.638330
4448.125980
4421.727881
4450.352500
4410.648647
4422.416718
4429.089502
4431.924515
4443.909046
4414.992812
4415.866773
4453.734644
4416.134551
4422.851914
4420.782938
4418.911130
4445.558008
4421.707086
4430.505131
4432.309547
4425.013741
4439.281544
4441.744871
4457.734770
4440.943136
4447.410453
4411.261673
4423.050299
4478.143004
4408.987230
4420.424388
4456.374030
4378.552571
4429.993418
4431.178157
4425.241048
4433.085264
4450.860244
4425.357351
4437.433920
4422.777761
4453.898131
4451.998213
4402.535683
4422.194962
4425.933714
4441.862156
4406.599385
4469.434406
4474.106958
4397.388413
4507.263943
4429.844293
4419.182150
4434.966333
4473.804909
4438.763448
4430.741256
4357.559907
4435.977277
4400.312110
4450.349234
4466.797079
4465.733536
4451.019027
4433.237455
4410.816211
4458.437876
4442.662123
4407.930442
4416.868377
4424.629910
4418.845107
4411.972109
4412.217579
4430.059581
4412.403081
4438.507214
4427.780750
4425.814179
4440.356482
4371.114027
4438.330834
4432.266190
4422.576341
4426.313555
4427.129535
4444.673091
4452.020990
4406.388119
4442.577533
4431.920889
4407.804176
4358.145326
4467.280179
4395.906307
4436.069317
4417.919593
4438.100338
4397.303706
4443.566940
4427.116137
4447.054144
4434.438894
4442.808286
4406.653337
4457.151416
4432.072736
4430.420380
4434.354787
4432.702957
4401.988664
4436.912487
4377.095039
4373.686859
4471.577908
4425.680655
4433.241504
4390.721862
4445.209269
4442.495352
4436.162566
4435.479251
4463.401401
4454.248679
4396.724560
4358.601129
4459.274787
4382.166957
4388.620832
4451.562768
4424.812381
4449.361048
4400.201484
4418.749107
4416.947864
4435.064272
4410.561618
4473.313658
4426.812498
4440.113780
4403.638375
4414.755616
4441.811016
4460.018197
4466.362722
4444.224155
4429.871783
4429.584192
4442.612593
4415.054602
4391.186153
4362.701952
4432.701727
4407.514054
4436.476935
4387.703369
4432.550330
4436.245369
4445.559818
4454.610569
4472.128423
4418.104320
4434.967992
4450.292970
4414.531861
4459.802787
4418.625043
4426.307737
4430.054933
4429.920239
4430.008440
4429.869977
4429.503844
4429.358140
4429.146619
4429.538401
4430.103753
4430.989149
4431.268468
4431.183438
4430.738614
4430.268222
4427.565550
4429.646910
4429.189191
4429.717294
4430.496670
4431.541284
4432.626677
4433.339062
4433.299451
4431.907778
4430.526416
4429.621473
4429.828833
4430.783313
4431.192021
4428.470272
4429.594114
4429.925782
4429.976197
4429.582020
4428.494475
4427.711389
4426.757416
4427.225986
4428.682932
4430.728506
4431.561265
4430.933363
4430.354404
4428.795131
4428.855926
4429.371968
4429.051751
4429.218947
4430.143935
4431.289486
4432.540016
4433.717857
4433.323939
4431.885644
4429.532633
4428.524039
4428.260091
4429.040223
4429.921612
4429.233695
4429.596319
4429.927247
4430.053766
4429.242888
4428.375576
4427.144414
4426.004627
4426.461671
4427.778925
4430.218779
4430.726742
4431.162869
4428.643779
4429.165157
4429.158902
4429.406919
4428.941229
4428.963946
4430.059850
4430.843416
4432.462616
4433.216073
4433.296324
4431.115386
4429.336052
4427.518197
4427.962715
4428.008581
4428.661811
4429.308859
4429.387835
4430.167366
4429.745826
4429.218989
4428.106232
4426.880711
4425.703205
4425.910867
4427.548084
4429.445863
4430.641119
4429.489624
4427.971815
4427.621106
4429.065334
4429.256613
4428.924082
4428.768582
4429.896959
4430.621852
4432.209368
4432.934505
4433.101816
4430.745018
4429.196899
4427.075545
4428.320874
4427.348677
4427.967797
4428.835094
4429.510646
4429.888775
4429.565567
4429.292465
4427.636000
4427.094576
4425.041550
4426.140548
4426.788299
4429.746034
4430.312025
4430.903559
4429.180119
4430.810433
4428.967718
4429.223409
4428.648986
4428.846691
4429.445357
4430.779414
4431.489689
4433.211647
4432.407881
4430.997147
4428.730576
4427.141114
4428.289863
4428.435431
4428.127729
4428.898112
4429.545547
4429.670761
4429.795400
4428.650808
4427.996999
4426.346033
4425.379032
4425.487623
4427.068539
4428.779838
4430.828631
4428.571993
4428.714311
4426.706863
4428.722869
4429.137217
4428.441615
4428.497747
4429.441691
4430.268300
4431.475870
4432.859274
4432.549556
4430.683400
4428.698538
4426.933450
4427.474373
4427.627066
4427.333883
4428.742570
4429.239266
4429.813408
4429.503585
4428.638621
4427.682324
4426.565087
4425.037778
4425.734678
4426.524706
4429.159040
4430.290121
4431.403853
4428.668580
4431.240151
4437.162390
4452.040219
4445.875536
4444.306655
4431.492436
4454.837855
4430.580607
4406.153529
4404.469899
4446.038394
4453.255914
4404.836600
4391.276377
4465.924212
4434.772028
4427.630097
4428.534830
4428.860100
4428.425769
4427.938294
4429.556887
4429.817152
4431.461671
4432.601947
4432.496171
4430.326568
4428.865450
4426.655928
4428.110509
4429.617158
4432.116497
4434.301931
4441.237653
4401.436298
4408.144240
4435.564796
4438.380547
4435.075659
4403.684077
4397.792713
4434.577590
4418.966372
4436.761701
4427.426657
4422.193360
4414.746863
4404.596414
4428.343782
4429.094703
4429.763247
4429.256037
4428.661232
4427.279464
4426.873285
4424.654521
4425.840774
4426.021227
4428.710247
4430.071679
4430.181981
4428.723757
4429.482966
4451.765463
4446.636031
4428.165968
4413.105957
4409.906876
4449.352573
4421.689780
4422.755028
4403.281639
4439.009565
4439.290933
4425.326126
4438.287527
4437.487709
4441.676219
4431.807167
4428.378030
4428.791004
4428.066235
4427.908410
4428.995729
4430.008149
4430.703246
4432.880562
4431.648490
4430.502463
4428.034852
4425.962197
4427.317792
4426.480483
4430.667080
4423.705114
4399.810081
4411.402625
4384.176503
4396.680739
4449.680660
4428.521982
4445.808550
4441.070636
4452.893498
4438.934243
4421.741850
4381.175708
4391.042323
4450.535772
4450.889283
4428.139696
4429.108697
4429.616642
4429.092181
4428.656122
4427.083058
4426.909818
4424.522146
4425.737367
4425.447028
4428.273106
4429.331569
4428.773470
4426.032578
4424.828183
4440.641272
4454.647270
4445.396066
4450.577171
4441.909540
4431.197955
4441.575719
4434.549297
4401.272454
4426.521848
4395.221601
4431.970690
4413.905417
4412.120863
4429.918062
4421.478875
4427.976873
4428.761789
4427.737314
4427.890033
4428.665747
4430.067412
4430.369002
4432.811924
4431.457708
4430.353060
4427.465602
4425.615823
4426.172479
4426.156646
4424.152179
4408.828545
4415.125714
4421.338678
4405.638970
4484.233087
4386.253623
4434.510903
4439.817173
4438.882489
4395.016550
4394.617242
4416.453244
4427.627814
4407.960959
4442.421187
4417.723252
4428.324335
4429.138828
4429.542882
4429.342302
4428.333348
4427.502434
4426.442717
4425.071786
4425.200654
4425.657102
4427.493898
4429.502134
4427.384846
4426.497293
4426.640824
4446.217924
4420.415228
4441.768811
4397.144259
4359.251298
4446.262620
4431.146464
4433.795031
4460.074189
4439.010303
4424.902156
4466.550474
4452.017794
4436.212028
4474.746571
4403.711479
4427.959006
4428.567092
4427.768618
4427.433427
4428.777379
4429.591592
4430.371949
4432.567933
4431.692166
4430.110044
4427.698198
4425.357953
4426.837157
4427.115055
4425.621303
4443.250230
4427.406342
4444.628809
4457.226323
4415.128542
4466.162629
4415.476566
4424.902849
4426.291525
4400.728982
4452.130835
4387.097303
4462.732330
4377.606130
4431.993979
4430.380396
4428.209254
4428.830080
4429.830020
4429.110930
4428.584062
4426.999443
4427.130543
4424.574939
4426.072616
4424.906869
4428.169837
4429.577577
4428.524397
4427.750549
4428.783769
4431.417249
4444.338576
4395.059645
4421.264982
4449.926024
4434.269117
4423.343891
4425.513888
4354.538571
4442.033823
4399.950033
4415.640507
4467.364099
4449.088626
4405.361259
4388.402905
4427.996541
4428.269905
4427.995545
4426.699098
4429.048202
4429.021059
4430.392462
4432.411333
4431.668660
4430.204553
4427.607807
4425.559752
4428.065901
4426.620704
4428.979190
4444.747711
4434.335696
4446.596806
4457.327947
4371.332903
4417.427113
4429.916308
4439.324153
4425.735597
4440.743941
4430.013937
4447.252068
4390.463074
4426.919893
4376.262696
4445.159033
4427.995038
4428.830678
4429.700450
4429.281281
4428.366857
4427.037072
4427.215443
4424.743213
4426.081441
4424.691947
4428.065286
4429.286093
4428.585859
4427.700684
4428.299986
4440.112989
4428.637874
4452.225754
4462.568446
4458.627706
4430.012599
4459.978371
4463.393344
4371.714543
4456.782492
4429.902331
4435.898118
4453.175554
4387.179914
4431.579580
4393.078370
4427.911389
4428.480320
4427.465088
4426.885662
4428.253372
4429.367987
4429.732036
4432.421869
4431.596343
4430.099537
4427.348404
4425.527103
4426.765642
4426.992573
4424.922515
4405.869602
4428.184846
4420.150542
4405.877547
4420.591408
4414.245567
4433.171410
4436.836297
4466.163131
4445.167201
4462.756939
4398.535453
4427.328674
4418.707878
4429.087998
4447.179298
4427.771940
4429.108146
4429.481295
4429.247251
4428.571074
4427.198630
4427.046132
4425.597556
4425.467911
4425.194241
4426.983840
4429.297122
4427.124374
4426.994091
4425.508732
4429.672951
4451.274862
4440.318053
4437.954431
4439.529502
4433.379214
4443.479488
4435.336520
4421.343254
4419.882578
4432.860945
4456.115354
4411.569605
4416.913447
4514.869299
4443.755936
4427.646641
4429.026199
4426.531061
4427.692489
4427.173309
4430.385678
4428.615238
4433.161585
4430.978855
4430.481498
4426.584881
4425.684502
4425.900668
4426.344752
4426.439584
4422.532515
4460.965938
4373.129843
4446.624858
4443.466872
4424.178288
4426.682978
4424.209703
4396.803391
4430.924149
4442.567533
4443.000148
4384.283951
4412.087163
4403.664584
4453.381734
4427.572816
4429.711968
4428.898461
4430.261538
4427.750908
4428.225420
4425.833193
4426.455023
4424.906998
4425.354773
4426.396112
4429.112572
4426.714247
4427.697120
4424.663831
4433.888747
4426.149808
4425.864290
4426.174943
4445.066085
4429.895186
4419.353454
4438.839856
4451.360054
4433.290741
4412.088942
4406.844130
4413.886484
4438.256965
4400.845192
4396.920345
4427.727249
4428.693618
4426.911861
4426.722285
4427.953783
4429.059136
4429.122732
4433.083019
4430.948157
4430.895508
4426.440235
4426.076307
4424.932450
4427.071702
4424.088500
4413.951546
4414.867745
4431.519600
4413.260258
4386.205425
4438.358141
4424.040693
4425.672314
4408.148834
4470.662015
4430.858563
4431.396329
4445.418756
4398.017630
4427.765557
4431.029168
4428.039567
4429.048137
4429.877740
4429.883947
4427.956121
4428.178887
4426.739716
4425.761582
4426.782803
4424.474025
4426.775451
4428.692507
4428.082096
4426.138132
4426.933373
4419.176607
4419.697925
4435.942570
4456.161853
4394.297558
4429.914660
4442.879513
4425.171769
4459.477749
4420.312608
4441.080131
4414.629632
4435.476840
4433.648943
4420.585837
4415.446433
4428.035397
4428.422314
4427.101860
4425.953947
4428.075743
4427.821498
4430.162510
4432.043304
4431.152441
4430.349266
4427.185775
4423.824623
4426.209229
4424.740814
4425.985451
4443.409949
4448.889702
4446.385206
4448.399282
4377.035028
4413.691322
4440.137389
4413.120929
4469.307526
4457.268242
4445.724350
4386.754767
4442.920182
4438.659421
4418.810130
4429.810629
4427.969641
4428.323366
4430.537898
4428.420263
4429.199236
4426.552663
4428.155119
4424.228938
4427.634251
4423.065465
4426.505317
4428.843814
4426.485307
4425.175012
4427.472877
4441.474535
4427.038490
4422.499260
4460.792912
4383.313401
4436.978101
4434.752173
4432.662294
4428.601357
4459.933336
4459.396073
4413.637648
4418.191720
4431.947253
4385.386634
4431.739908
4427.709939
4428.623958
4426.851097
4426.257812
4426.975392
4428.897831
4429.384593
4432.588566
4431.662149
4431.277974
4426.941226
4424.361861
4424.214274
4423.938778
4423.843587
4430.014568
4430.209991
4418.561202
4374.219239
4426.688397
4444.685092
4443.570303
4438.681244
4445.351067
4437.737660
4402.455232
4419.611735
4393.592566
4435.044040
4408.334784
4444.123519
4427.527160
4429.720125
4428.584970
4430.721286
4428.221476
4428.598990
4427.094902
4427.233355
4425.941493
4424.420445
4426.355865
4427.915725
4426.514260
4425.587472
4424.304100
4435.587358
4439.981391
4425.083182
4427.245310
4451.215868
4416.189151
4416.372966
4474.352978
4390.493002
4457.403597
4417.598021
4391.821918
4466.715214
4417.828271
4565.859187
4411.772014
4427.375413
4429.019888
4426.796609
4426.395827
4426.778208
4429.566124
4427.606207
4434.313148
4429.898603
4431.029938
4425.583491
4425.963191
4422.706638
4425.395844
4420.789473
4449.022809
4414.807803
4412.821912
4418.980811
4476.795783
4456.771108
4439.549921
4431.284591
4443.448757
4430.071784
4440.266444
4445.308694
4448.845413
4444.114618
4278.524722
4430.200817
4427.915270
4430.163998
4428.666426
4431.802602
4427.027171
4429.449150
4425.163329
4427.490475
4423.499920
4425.681900
4423.860024
4427.662512
4424.795482
4426.891174
4420.142318
4425.657365
4435.281098
4413.500395
4429.537982
4445.944644
4413.527960
4437.619776
4441.485994
4439.901082
4420.520011
4406.141247
4442.278097
4449.843074
4429.376972
4377.412648
4394.304049