# vtk DataFile Version 2.0
mfree iwf
ASCII

DATASET UNSTRUCTURED_GRID
POINTS 8616 float
0.000001 0.000445 0.000000
0.000001 0.000450 0.000000
0.000001 0.000455 0.000000
0.000001 0.000460 0.000000
0.000001 0.000465 0.000000
0.000001 0.000470 0.000000
0.000001 0.000475 0.000000
0.000001 0.000480 0.000000
0.000001 0.000486 0.000000
0.000001 0.000490 0.000000
0.000001 0.000496 0.000000
0.000003 0.000500 0.000000
0.000131 0.000559 0.000000
0.000131 0.000567 0.000000
0.000131 0.000584 0.000000
0.000131 0.000592 0.000000
0.000131 0.000592 0.000000
0.000131 0.000596 0.000000
0.000131 0.000603 0.000000
0.000131 0.000607 0.000000
0.000131 0.000616 0.000000
0.000131 0.000635 0.000000
0.000132 0.000641 0.000000
0.000133 0.000646 0.000000
0.000134 0.000650 0.000000
0.000136 0.000655 0.000000
0.000137 0.000659 0.000000
0.000139 0.000665 0.000000
0.000140 0.000669 0.000000
0.000142 0.000675 0.000000
0.000144 0.000682 0.000000
0.000152 0.000709 0.000000
0.000006 0.000445 0.000000
0.000006 0.000450 0.000000
0.000006 0.000455 0.000000
0.000006 0.000460 0.000000
0.000006 0.000465 0.000000
0.000006 0.000470 0.000000
0.000006 0.000476 0.000000
0.000006 0.000480 0.000000
0.000006 0.000486 0.000000
0.000007 0.000490 0.000000
0.000005 0.000496 0.000000
0.000007 0.000499 0.000000
0.000132 0.000581 0.000000
0.000138 0.000592 0.000000
0.000134 0.000614 0.000000
0.000134 0.000621 0.000000
0.000134 0.000625 0.000000
0.000134 0.000630 0.000000
0.000135 0.000634 0.000000
0.000136 0.000638 0.000000
0.000138 0.000645 0.000000
0.000139 0.000650 0.000000
0.000141 0.000657 0.000000
0.000143 0.000663 0.000000
0.000146 0.000669 0.000000
0.000147 0.000676 0.000000
0.000147 0.000680 0.000000
0.000149 0.000685 0.000000
0.000149 0.000694 0.000000
0.000149 0.000699 0.000000
0.000148 0.000695 0.000000
0.000151 0.000705 0.000000
0.000010 0.000445 0.000000
0.000012 0.000450 0.000000
0.000010 0.000456 0.000000
0.000012 0.000460 0.000000
0.000010 0.000466 0.000000
0.000012 0.000470 0.000000
0.000011 0.000476 0.000000
0.000012 0.000480 0.000000
0.000010 0.000486 0.000000
0.000012 0.000490 0.000000
0.000010 0.000497 0.000000
0.000012 0.000498 0.000000
0.000138 0.000581 0.000000
0.000140 0.000590 0.000000
0.000137 0.000601 0.000000
0.000136 0.000606 0.000000
0.000137 0.000610 0.000000
0.000136 0.000617 0.000000
0.000139 0.000619 0.000000
0.000140 0.000628 0.000000
0.000141 0.000632 0.000000
0.000140 0.000640 0.000000
0.000144 0.000643 0.000000
0.000143 0.000652 0.000000
0.000147 0.000652 0.000000
0.000150 0.000660 0.000000
0.000146 0.000665 0.000000
0.000148 0.000673 0.000000
0.000151 0.000688 0.000000
0.000151 0.000692 0.000000
0.000152 0.000700 0.000000
0.000156 0.000706 0.000000
0.000015 0.000445 0.000000
0.000017 0.000450 0.000000
0.000015 0.000455 0.000000
0.000017 0.000460 0.000000
0.000015 0.000466 0.000000
0.000017 0.000471 0.000000
0.000015 0.000476 0.000000
0.000017 0.000480 0.000000
0.000015 0.000485 0.000000
0.000018 0.000489 0.000000
0.000015 0.000496 0.000000
0.000018 0.000498 0.000000
0.000026 0.000500 0.000000
0.000139 0.000596 0.000000
0.000142 0.000605 0.000000
0.000141 0.000610 0.000000
0.000144 0.000621 0.000000
0.000137 0.000626 0.000000
0.000147 0.000630 0.000000
0.000143 0.000637 0.000000
0.000148 0.000641 0.000000
0.000145 0.000647 0.000000
0.000151 0.000656 0.000000
0.000146 0.000659 0.000000
0.000151 0.000667 0.000000
0.000153 0.000672 0.000000
0.000153 0.000677 0.000000
0.000153 0.000681 0.000000
0.000155 0.000685 0.000000
0.000157 0.000693 0.000000
0.000156 0.000698 0.000000
0.000160 0.000704 0.000000
0.000020 0.000445 0.000000
0.000022 0.000450 0.000000
0.000020 0.000456 0.000000
0.000022 0.000460 0.000000
0.000019 0.000465 0.000000
0.000022 0.000469 0.000000
0.000020 0.000475 0.000000
0.000022 0.000480 0.000000
0.000020 0.000486 0.000000
0.000022 0.000491 0.000000
0.000022 0.000498 0.000000
0.000023 0.000499 0.000000
0.000040 0.000500 0.000000
0.000147 0.000593 0.000000
0.000146 0.000601 0.000000
0.000147 0.000607 0.000000
0.000143 0.000615 0.000000
0.000147 0.000618 0.000000
0.000146 0.000626 0.000000
0.000146 0.000635 0.000000
0.000150 0.000636 0.000000
0.000150 0.000646 0.000000
0.000155 0.000648 0.000000
0.000157 0.000657 0.000000
0.000154 0.000662 0.000000
0.000157 0.000667 0.000000
0.000157 0.000673 0.000000
0.000161 0.000683 0.000000
0.000158 0.000688 0.000000
0.000162 0.000694 0.000000
0.000161 0.000698 0.000000
0.000163 0.000703 0.000000
0.000025 0.000445 0.000000
0.000026 0.000450 0.000000
0.000025 0.000455 0.000000
0.000026 0.000459 0.000000
0.000026 0.000466 0.000000
0.000027 0.000471 0.000000
0.000024 0.000476 0.000000
0.000027 0.000479 0.000000
0.000025 0.000485 0.000000
0.000027 0.000490 0.000000
0.000027 0.000492 0.000000
0.000028 0.000500 0.000000
0.000131 0.000573 0.000000
0.000144 0.000595 0.000000
0.000140 0.000600 0.000000
0.000146 0.000612 0.000000
0.000151 0.000613 0.000000
0.000147 0.000623 0.000000
0.000153 0.000625 0.000000
0.000152 0.000629 0.000000
0.000153 0.000640 0.000000
0.000156 0.000642 0.000000
0.000152 0.000651 0.000000
0.000157 0.000653 0.000000
0.000157 0.000662 0.000000
0.000162 0.000673 0.000000
0.000159 0.000678 0.000000
0.000164 0.000678 0.000000
0.000162 0.000689 0.000000
0.000166 0.000686 0.000000
0.000166 0.000697 0.000000
0.000168 0.000702 0.000000
0.000031 0.000445 0.000000
0.000031 0.000450 0.000000
0.000030 0.000457 0.000000
0.000033 0.000462 0.000000
0.000029 0.000465 0.000000
0.000032 0.000469 0.000000
0.000031 0.000474 0.000000
0.000032 0.000480 0.000000
0.000031 0.000486 0.000000
0.000032 0.000492 0.000000
0.000034 0.000498 0.000000
0.000031 0.000499 0.000000
0.000050 0.000500 0.000000
0.000144 0.000587 0.000000
0.000152 0.000603 0.000000
0.000152 0.000606 0.000000
0.000154 0.000618 0.000000
0.000155 0.000622 0.000000
0.000156 0.000631 0.000000
0.000156 0.000635 0.000000
0.000161 0.000638 0.000000
0.000160 0.000648 0.000000
0.000164 0.000651 0.000000
0.000162 0.000661 0.000000
0.000166 0.000664 0.000000
0.000162 0.000667 0.000000
0.000166 0.000670 0.000000
0.000164 0.000680 0.000000
0.000171 0.000688 0.000000
0.000168 0.000692 0.000000
0.000171 0.000696 0.000000
0.000173 0.000701 0.000000
0.000036 0.000445 0.000000
0.000036 0.000450 0.000000
0.000038 0.000455 0.000000
0.000034 0.000456 0.000000
0.000035 0.000465 0.000000
0.000038 0.000472 0.000000
0.000034 0.000476 0.000000
0.000039 0.000481 0.000000
0.000035 0.000484 0.000000
0.000036 0.000489 0.000000
0.000039 0.000492 0.000000
0.000037 0.000498 0.000000
0.000131 0.000552 0.000000
0.000131 0.000571 0.000000
0.000153 0.000598 0.000000
0.000156 0.000609 0.000000
0.000154 0.000614 0.000000
0.000160 0.000618 0.000000
0.000159 0.000627 0.000000
0.000162 0.000631 0.000000
0.000160 0.000643 0.000000
0.000165 0.000642 0.000000
0.000163 0.000655 0.000000
0.000167 0.000653 0.000000
0.000166 0.000660 0.000000
0.000170 0.000672 0.000000
0.000170 0.000676 0.000000
0.000174 0.000680 0.000000
0.000171 0.000683 0.000000
0.000174 0.000689 0.000000
0.000175 0.000694 0.000000
0.000177 0.000700 0.000000
0.000041 0.000445 0.000000
0.000041 0.000450 0.000000
0.000039 0.000460 0.000000
0.000042 0.000457 0.000000
0.000041 0.000465 0.000000
0.000040 0.000469 0.000000
0.000044 0.000475 0.000000
0.000039 0.000477 0.000000
0.000041 0.000487 0.000000
0.000043 0.000492 0.000000
0.000043 0.000497 0.000000
0.000046 0.000498 0.000000
0.000131 0.000513 0.000000
0.000140 0.000586 0.000000
0.000153 0.000593 0.000000
0.000164 0.000604 0.000000
0.000161 0.000614 0.000000
0.000161 0.000621 0.000000
0.000165 0.000625 0.000000
0.000163 0.000633 0.000000
0.000167 0.000637 0.000000
0.000166 0.000645 0.000000
0.000169 0.000648 0.000000
0.000172 0.000657 0.000000
0.000170 0.000663 0.000000
0.000174 0.000666 0.000000
0.000173 0.000670 0.000000
0.000175 0.000676 0.000000
0.000177 0.000683 0.000000
0.000179 0.000688 0.000000
0.000180 0.000693 0.000000
0.000182 0.000698 0.000000
0.000045 0.000445 0.000000
0.000047 0.000450 0.000000
0.000045 0.000455 0.000000
0.000046 0.000461 0.000000
0.000045 0.000466 0.000000
0.000047 0.000470 0.000000
0.000047 0.000478 0.000000
0.000044 0.000481 0.000000
0.000051 0.000484 0.000000
0.000046 0.000486 0.000000
0.000049 0.000493 0.000000
0.000051 0.000498 0.000000
0.000131 0.000519 0.000000
0.000133 0.000576 0.000000
0.000148 0.000599 0.000000
0.000160 0.000607 0.000000
0.000164 0.000613 0.000000
0.000166 0.000621 0.000000
0.000168 0.000630 0.000000
0.000171 0.000634 0.000000
0.000172 0.000643 0.000000
0.000175 0.000646 0.000000
0.000172 0.000652 0.000000
0.000175 0.000660 0.000000
0.000176 0.000656 0.000000
0.000179 0.000669 0.000000
0.000180 0.000674 0.000000
0.000180 0.000679 0.000000
0.000183 0.000683 0.000000
0.000183 0.000687 0.000000
0.000185 0.000692 0.000000
0.000187 0.000697 0.000000
0.000050 0.000445 0.000000
0.000052 0.000450 0.000000
0.000050 0.000456 0.000000
0.000053 0.000459 0.000000
0.000050 0.000465 0.000000
0.000053 0.000471 0.000000
0.000049 0.000474 0.000000
0.000052 0.000477 0.000000
0.000050 0.000488 0.000000
0.000053 0.000491 0.000000
0.000059 0.000493 0.000000
0.000054 0.000499 0.000000
0.000131 0.000544 0.000000
0.000141 0.000572 0.000000
0.000145 0.000582 0.000000
0.000159 0.000603 0.000000
0.000167 0.000611 0.000000
0.000169 0.000618 0.000000
0.000173 0.000623 0.000000
0.000170 0.000626 0.000000
0.000177 0.000637 0.000000
0.000172 0.000639 0.000000
0.000177 0.000648 0.000000
0.000180 0.000653 0.000000
0.000182 0.000661 0.000000
0.000179 0.000665 0.000000
0.000184 0.000669 0.000000
0.000185 0.000674 0.000000
0.000186 0.000679 0.000000
0.000188 0.000685 0.000000
0.000190 0.000691 0.000000
0.000191 0.000696 0.000000
0.000055 0.000445 0.000000
0.000057 0.000450 0.000000
0.000055 0.000454 0.000000
0.000057 0.000461 0.000000
0.000054 0.000465 0.000000
0.000058 0.000469 0.000000
0.000058 0.000478 0.000000
0.000059 0.000482 0.000000
0.000054 0.000483 0.000000
0.000057 0.000487 0.000000
0.000057 0.000497 0.000000
0.000061 0.000497 0.000000
0.000131 0.000548 0.000000
0.000132 0.000578 0.000000
0.000140 0.000580 0.000000
[...]
POINT_DATA 8616
SCALARS density float 1
LOOKUP_TABLE default
4428.552175
4430.435389
4426.327795
4422.329773
4421.630917
4427.664009
4439.191801
4432.204825
4443.213811
4426.542596
4434.300777
4397.122177
4597.790267
4449.107723
4545.406244
4448.814658
4441.906083
4539.979993
4478.538555
4528.356964
4569.210438
4432.376872
4416.413811
4428.521731
4428.853253
4424.188479
4436.761145
4425.381340
4432.692736
4427.528040
4450.104743
4430.045636
4421.975341
4426.631246
4424.835886
4433.510853
4442.498831
4419.035688
4423.152156
4424.955493
4406.339326
4416.240372
4446.716665
4398.981172
4417.098448
4452.711296
4408.595119
4385.566234
4395.245397
4410.862236
4421.184611
4419.179994
4439.670300
4405.021929
4428.379308
4399.939307
4442.369620
4396.214504
4400.662715
4401.282080
4436.997584
4387.369902
4438.698351
4454.814088
4422.245482
4418.938185
4445.043726
4402.348778
4437.906445
4410.179227
4454.023905
4379.676216
4484.647714
4359.980855
4480.438710
4406.366444
4488.362309
4462.298786
4441.907444
4415.974411
4426.120681
4415.932281
4491.889553
4424.575157
4437.181069
4395.866775
4407.367756
4395.524860
4390.470186
4433.007161
4420.140859
4422.415823
4405.971141
4462.514889
4416.731510
4411.809649
4429.800321
4439.071796
4431.316992
4444.053009
4443.251840
4416.154464
4464.354552
4384.689351
4476.241628
4377.893477
4525.840439
4396.495764
4434.212161
4426.922322
4488.238432
4456.479359
4397.754209
4452.736456
4388.316835
4458.655441
4408.675381
4463.464196
4398.910535
4444.427397
4374.394347
4469.856255
4420.993776
4484.606833
4458.340651
4383.523244
4477.278630
4441.187071
4429.468593
4429.017185
4436.390415
4419.017342
4433.577923
4432.904750
4429.016870
4440.201229
4470.029179
4362.116967
4464.701072
4431.054099
4416.732687
4410.865585
4450.044015
4395.691820
4419.230186
4424.395577
4432.031579
4450.906197
4421.085643
4406.746162
4427.978983
4417.733173
4468.845756
4407.694774
4450.639297
4426.376979
4399.072981
4473.039445
4367.276075
4443.239795
4432.250445
4429.459720
4434.054355
4427.638073
4445.244074
4423.215796
4435.665970
4417.369513
4402.475945
4477.764163
4432.702869
4423.697454
4495.150800
4456.982892
4421.861536
4439.098414
4455.752309
4455.535658
4442.841905
4450.863270
4476.258751
4444.458626
4456.922248
4449.431104
4449.967684
4464.472679
4348.157863
4455.785495
4459.867687
4412.684838
4420.450981
4431.930236
4435.919035
4425.074115
4415.492214
4425.906352
4427.659652
4415.146807
4429.493020
4416.245342
4429.302221
4383.648398
4469.368028
4414.437718
4428.204367
4477.676550
4432.057994
4476.668490
4416.738060
4393.972857
4426.432106
4408.805871
4412.649461
4400.925324
4455.583955
4413.745609
4438.388748
4417.604406
4411.710741
4468.499292
4456.846812
4410.088367
4416.980929
4434.861436
4438.469622
4434.017409
4408.526148
4434.714211
4444.614349
4433.668192
4437.760216
4399.406196
4435.057654
4428.861938
4428.133716
4449.023463
4552.341357
4480.731300
4436.273511
4406.534137
4493.781008
4465.489390
4432.629963
4448.144126
4433.567896
4447.379636
4437.035429
4434.277392
4427.231205
4418.334159
4407.799049
4442.194046
4396.021381
4436.280972
4408.641255
4433.284838
4425.093019
4439.285384
4427.030591
4442.139467
4423.498634
4429.292105
4424.912606
4425.124270
4459.120772
4405.642111
4432.233830
4424.320200
4633.357870
4411.844433
4467.283361
4432.235576
4426.863053
4460.710522
4458.325456
4448.424307
4438.115282
4450.414824
4434.536538
4451.576838
4419.189874
4408.318825
4440.459887
4450.002814
4405.674451
4426.263721
4412.731842
4434.758095
4431.314867
4420.596268
4423.769839
4418.052078
4439.552442
4421.994181
4420.532915
4447.742326
4453.192060
4395.162893
4464.909515
4441.270715
4526.307993
4417.668495
4468.322857
4481.424752
4456.928613
4437.471400
4431.465400
4449.939615
4421.595532
4454.218993
4429.356151
4424.610226
4443.313853
4423.943689
4408.219438
4419.276226
4434.128235
4448.123505
4428.999356
4416.891973
4430.920588
4425.180739
4419.779890
4427.803540
4425.568926
4413.524200
4465.749393
4380.656563
4426.143966
4411.788914
4568.603916
4393.894855
4641.230229
4430.554822
4426.540593
4438.489652
4471.660646
4421.863663
4468.549085
4450.537266
4456.619744
4446.621151
4437.831216
4418.992119
4443.196570
4451.103321
4441.842926
4456.214833
4432.619433
4411.538636
4420.043361
4421.323178
4435.158205
4420.842902
4430.508770
4421.316595
4423.252613
4422.310290
4429.488908
4419.647528
4485.022302
4364.148297
4391.717146
4385.843692
4423.901587
4396.159685
4466.308818
4453.545764
4434.620788
4476.353093
4446.319769
4449.243393
4437.246037
4463.528835
4465.611493
4441.546864
4432.721789
4423.317977
4426.077370
4410.014920
4438.917399
4433.103117
4423.492563
4424.609396
4428.296999
4411.254960
4424.064302
4412.179825
4423.029740
4421.093416
4463.797611
4396.344799
4467.483549
4403.722563
4447.763179
4438.813793
4408.183238
4353.033477
4439.799540
4439.715600
4430.137237
4418.078941
4455.798966
4448.296674
4441.030658
4448.865898
4420.545445
4443.800047
4443.546675
4429.174670
4448.684297
4457.498056
4429.099646
4418.515240
4412.851352
4417.151327
4442.763148
4427.247961
4427.719349
4425.202316
4438.383395
4399.135854
4466.534675
4425.971412
4446.238151
4371.055127
4451.935417
4427.037571
4616.031241
4472.239346
4408.306285
4449.521212
4454.989723
4469.923396
4442.767568
4457.465586
4434.151870
4455.373837
4443.983830
4421.855155
4430.975945
4453.706773
4410.515658
4426.415662
4440.558832
4422.922065
4427.749019
4417.772218
4422.537036
4423.846453
4412.202417
4414.886668
4420.232975
4420.232746
4444.642876
4377.666232
4445.432028
4457.644154
4439.880267
4451.395674
4558.261394
4406.382600
4491.476657
4471.125797
4485.852554
4446.002827
4481.736654
4459.691641
4468.717382
4437.079069
4445.371543
4449.272494
4446.193211
4430.601825
4448.814590
4438.374381
4439.162444
4409.271601
4420.319622
4421.627471
4443.677468
4432.611662
4427.155989
4435.799291
4424.136830
4417.416038
4413.573013
4434.134221
4434.643897
4346.878718
4439.028176
4447.045856
4424.334604
4424.455449
4477.941084
4470.220871
4462.307800
4422.730761
4434.948583
4435.282537
4433.938458
4473.420893
4426.856274
4450.766153
4454.185156
4440.440029
4462.828236
4408.930223
4430.104111
4433.016202
4404.599059
4419.737951
4424.305226
4420.952321
4424.040825
4421.493729
4418.403150
4433.818019
4419.859848
4401.393007
4403.481773
4514.610168
4381.281643
4426.569332
4420.041215
4431.174396
4481.601480
4445.088615
4445.984621
4417.228818
4423.249546
4430.279569
4429.026510
4441.104335
4463.694072
4474.920668
4428.849930
4436.877492
4415.986426
4457.708748
4419.652080
4428.782638
4418.447630
4414.899187
4445.402577
4424.699412
4431.848663
4423.933750
4427.829963
4405.390348
4436.204018
4430.400144
4419.022587
4418.450800
4439.600721
4460.730070
4501.674581
4526.201337
4632.289656
4463.711664
4445.235335
4410.269376
4475.086858
4477.465499
4491.953979
4466.269400
4443.750332
4455.240616
4446.876794
4448.056621
4431.151257
4447.423831
4418.175714
4422.747552
4425.450407
4416.407161
4422.764216
4426.359878
4430.494031
4424.165610
4435.798790
4441.323435
4426.966564
4436.496564
4445.296144
4448.127578
4389.000829
4421.746191
4405.719173
4419.366581
4399.522584
4493.898513
4521.110798
4427.574469
4446.157801
4479.032944
4454.844586
4440.388461
4424.868918
4407.647203
4464.571487
4429.824798
4450.331945
4395.490715
4448.461333
4421.237888
4412.073688
4418.546253
4445.263392
4431.118105
4429.119182
4428.909714
4424.019854
4423.247685
4407.408198
4419.108259
4430.147734
4426.393522
4431.078595
4440.711353
4392.492732
4502.591063
4457.576075
4489.314341
4474.130632
4491.788629
4378.075487
4438.210303
4402.906040
4414.815137
4471.279946
4454.088919
4453.072956
4438.424921
4450.293967
4442.887316
4437.357236
4419.031164
4418.075508
4419.940104
4415.830265
4417.354757
4427.591613
4434.375642
4415.694823
4420.032262
4435.818036
4415.277539
4434.501324
4472.176136
4384.432027
4577.778947
4467.911453
4476.144745
4482.628769
4465.105664
4529.083155
4477.972113
4440.420476
4466.994566
4431.766198
4476.779596
4478.157119
4446.897313
4426.343143
4456.598226
4428.790444
4449.808881
4414.303354
4418.930095
4433.480129
4412.064631
4448.817689
4432.520431
4424.640478
4417.407925
4433.289617
4420.224625
4424.133188
4401.295498
4458.910458
4401.606199
4412.921867
4416.269772
4490.902054
4488.080152
4531.806958
4494.816990
4489.078746
4499.090915
4443.782124
4445.121192
4452.368088
4363.576190
4401.959165
4452.715275
4425.688261
4444.172597
4459.990501
4420.111790
4445.033294
4415.793517
4420.706723
4417.110068
4417.311356
4420.207169
4431.800897
4430.878148
4418.382477
4407.459073
4433.004245
4393.564138
4428.334623
4353.632809
4309.660972
4545.575490
4383.511971
4498.250992
4469.119255
4465.675902
4488.364901
4451.786466
4451.077121
4465.657589
4446.359143
4435.955325
4445.724173
4409.759263
4449.094383
4414.809356
4471.698130
4428.448455
4453.220111
4420.112504
4416.135000
4422.415652
4449.429959
4440.861355
4426.440215
4421.463638
4428.275913
4435.172582
4401.467392
4447.482382
4461.581887
4461.749738
4480.546272
4477.006611
4485.363650
4473.651847
4491.270508
4492.005251
4454.061845
4469.614555
4475.344539
4440.694205
4451.262367
4453.731111
4370.015909
4439.196224
4445.598220
4479.600861
4413.730973
4471.914604
4406.578432
4418.674451
4429.604077
4420.507013
4401.231829
4425.052920
4424.146525
4425.068548
4426.130985
4426.330153
4427.059670
4427.270041
4427.843717
4427.974522
4428.527127
4428.562579
4428.914523
4428.934648
4429.470569
4407.641514
4422.238583
4421.986324
4423.490282
4424.701687
4425.065853
4426.145972
4426.221394
4427.112602
4427.184719
4427.995133
4427.999283
4428.447500
4428.305379
4431.359859
4412.979229
4422.444309
4421.507149
4423.264702
4424.663076
4424.715884
4426.091498
4425.948011
4427.218051
4426.849242
4428.083750
4427.528720
4428.604846
4428.356702
4429.964957
4415.861317
4423.484446
4422.342709
4423.874918
4424.570540
4425.165422
4426.075177
4426.150108
4427.078125
4427.005696
4427.930708
4427.664406
4428.932357
4428.246500
4431.176664
4418.946428
4424.101812
4423.372005
4424.164884
4424.980139
4425.299170
4426.072770
4426.347626
4427.080288
4427.147294
4427.912759
4427.649639
4428.809298
4428.007557
4430.811193
4420.354085
4424.832898
4424.164655
4424.548285
4425.577142
4425.411454
4426.599803
4426.300555
4427.339893
4427.069895
4428.031577
4427.751477
4428.533324
4427.533667
4430.233222
4421.723245
4425.426095
4424.811138
4425.121441
4425.804206
4425.776009
4426.659593
4426.521609
4427.479566
4427.263764
4428.074745
4427.683302
4428.498310
4427.013161
4428.743741
4422.792736
4425.996825
4425.343675
4425.614747
4426.187295
4426.222744
4426.860335
4426.928380
4427.479430
4427.458140
4428.237165
4427.775657
4428.849950
4427.176152
4428.468871
4423.620110
4426.439126
4425.815098
4426.067078
4426.481062
4426.443041
4427.142880
4426.961059
4427.789102
4427.696089
4428.287679
4428.302524
4428.830342
4428.328682
4429.278443
4424.531405
4426.843032
4426.208999
4426.525426
4426.727224
4426.982243
4427.191646
4427.541584
4427.711177
4428.023890
4428.396097
4428.702195
4429.295246
4428.968465
4430.116565
4424.974126
4427.205355
4426.513658
4426.923168
4426.907413
4427.226260
4427.339061
4427.665006
4427.835289
4428.312433
4428.506437
4428.874454
4429.622478
4429.511367
4430.512783
4425.580655
4427.451213
4426.858674
4427.164534
4427.304588
4427.393285
4427.745478
4427.709622
4428.238134
4428.116366
4428.802620
4428.944792
4429.753999
4429.791421
4430.698948
4426.126841
4427.547801
4427.353008
4427.285501
4427.559411
4427.549068
4427.835825
4427.877595
4428.198298
4428.433741
4428.778657
4428.887171
4429.728838
4429.931014
4430.797489
4442.514982
4418.102853
4428.605430
4447.111586
4435.697059
4444.177562
4476.956169
4475.630099
4463.922670
4467.451635
4459.439503
4453.914620
4460.435224
4429.867849
4413.373711
4406.058176
4426.461729
4427.819775
4427.462832
4427.599663
4427.764609
4427.769677
4428.030403
4428.045114
4428.357586
4428.334777
4428.663150
4429.013076
4429.221677
4429.899587
4432.035886
4437.661362
4431.500926
4440.303013
4419.316240
4469.271606
4498.174738
4469.937851
4464.652848
4465.647747
4434.978982
4450.368852
4460.232303
4488.842665
4451.183202
4376.963263
4409.645020
4426.606100
4427.966947
4427.735077
4427.763447
4427.907754
4427.897282
4428.169410
4427.976322
4428.438186
4428.237750
4428.941237
4428.366873
4429.508786
4428.865746
4429.375995
4446.105140
4432.581466
4405.145857
4437.631287
4438.567702
4438.559867
4481.552924
4464.411106
4459.514968
4452.627271
4458.186051
4427.366227
4416.025817
4454.482627
4368.477699
4410.010382
4426.890187
4428.138023
4427.922053
4427.903187
4428.192952
4428.034139
4428.292313
4428.220805
4428.490755
4428.235032
4428.677383
4428.309696
4429.424180
4427.709540
4431.869267
4418.993878
4418.056727
4434.999541
4441.875671
4448.693090
4457.025596
4442.452745
4474.547167
4456.172441
4466.014680
4480.440979
4494.724814
4433.019423
4399.597770
4424.260745
4406.188976
4427.111044
4428.309351
4428.073225
4428.202615
4428.163952
4428.226615
4428.359630
4428.178358
4428.349717
4428.320916
4428.351635
4428.228961
4427.874224
4427.531271
4426.907786
4427.918828
4418.511371
4415.008121
4440.109190
4435.929046
4409.559082
4452.179264
4437.264267
4437.109370
4459.844568
4461.391327
4474.166960
4425.219129
4375.821421
4398.337975
4414.193927
4427.335244
4428.532903
4428.170388
4428.413210
4428.275894
4428.575257
4428.251609
4428.599400
4428.369435
4428.306034
4428.198786
4427.606999
4428.206373
4426.443285
4423.509472
4434.651961
4443.350664
4392.270694
4416.997876
4429.033301
4428.247939
4431.726330
4427.220724
4459.441370
4455.923351
4459.633086
4461.315379
4471.158974
4405.562456
4443.804275
4418.394740
4427.488299
4428.706518
4428.307587
4428.665979
4428.337704
4428.637158
4428.400691
4428.633068
4428.128903
4428.741703
4427.662084
4428.621668
4425.816997
4427.626059
4426.007978
4444.555310
4411.235498
4433.200834
4457.082039
4460.974186
4453.165489
4443.108147
4433.284648
4447.962581
4453.999506
4475.669990
4458.906345
4439.308264
4444.502019
4453.238227
4434.696883
4427.651458
4428.883753
4428.410091
4428.861073
4428.435176
4428.963236
4428.443579
4428.851477
4428.492639
4428.535838
4428.193303
4427.956500
4428.215503
4427.503619
4426.033474
4404.275946
4434.932632
4431.745715
4401.950305
4458.084271
4430.356143
4466.328904
4431.854694
4443.603654
4467.932463
4427.498542
4473.296678
4444.949707
4473.956472
4458.760496
4418.109818
4427.858165
4428.880816
4428.742366
4428.867006
4428.751858
4428.879698
4428.790489
4428.828640
4428.711499
4428.619464
4428.638194
4428.468752
4427.866906
4428.127100
4429.862620
4460.545314
4426.610255
4430.358427
4415.830168
4447.814852
4401.896661
4448.287567
4445.366062
4433.335593
4452.916037
4448.681317
4444.708722
4477.750859
4460.036723
4460.694537
4410.379605
4428.106329
4428.957333
4428.986646
4428.954281
4429.039286
4428.973011
4429.119280
4428.913636
4428.980378
4428.970609
4428.579644
4428.683700
4428.914688
4429.054455
4429.513610
4410.546343
4424.297985
4437.848695
4406.130329
4438.803184
4423.805672
4444.361585
4434.674315
4447.820419
4457.220799
4463.708096
4452.604517
4459.757308
4481.666903
4385.078173
4455.137779
4428.329518
4429.091044
4429.153828
4429.155060
4429.125731
4429.242461
4429.124919
4429.196631
4429.198424
4428.885937
4429.259179
4429.002772
4428.253037
4428.947901
4428.544927
4425.465023
4433.078072
4433.814261
4467.559982
4442.959683
4431.613751
4431.144018
4411.456598
4451.940750
4423.610023
4450.905935
4460.402339
4453.278406
4484.386737
4465.020111
4439.258114
4428.516300
4429.238774
4429.290465
4429.304161
4429.377593
4429.303087
4429.524577
4429.273641
4429.367008
4429.512005
4429.067513
4429.206456
4429.273062
4428.506512
4430.101906
4429.367149
4432.260902
4402.887644
4422.421117
4446.871813
4405.518671
4431.451061
4441.363040
4394.497546
4404.392539
4411.242763
4451.644621
4462.140079
4446.296797
4411.210610
4409.324489
4428.804209
4429.367992
4429.537681
4429.455351
4429.541794
4429.540793
4429.560696
4429.553426
4429.677544
4429.333812
4429.884730
4429.380318
4429.499294
4429.133080
4429.252039
4418.244134
4436.187034
4418.600420
4402.232641
4433.993497
4438.929381
4439.446316
4436.801180
4440.050352
4454.765238
4460.970516
4421.413200
4445.230374
4451.916399
4463.301733
4457.646993
4429.060999
4429.585024
4429.618280
4429.731567
4429.656520
4429.766035
4429.866291
4429.689908
4429.929644
4429.804726
4429.904878
4429.675227
4430.252732
4429.942598
4430.382727
4435.500594
4445.894910
4421.636626
4414.720165
4439.320750
4446.964362
4451.162613
4421.799723
4433.331737
4444.917730
4452.722329
4463.311300
4470.508525
4464.461377
4458.933059
4458.582891
4429.422122
4429.746442
4429.827891
4429.870126
4429.898128
4429.939407
4429.953467
4430.088293
4429.887760
4430.227526
4429.845769
4430.513909
4429.722890
4431.081529
4433.220711
4426.582030
4439.414330
4418.934416
4430.029471
4422.517566
4446.102041
4434.197635
4436.045299
4450.673963
4452.392191
4448.816632
4432.823662
4458.365224
4453.400968
4449.961315
4458.753009
4429.700942
4429.871029
4430.073600
4430.110854
4430.032654
4430.215471
4430.183525
4430.166967
4430.359898
4430.119031
4430.639441
4430.004328
4431.220988
4430.895355
4430.523135
4440.335636
4386.493638
4443.198667
4398.966599
4381.242015
4420.281683
4410.729753
4432.052323
4432.417828
4463.931479
4467.434758
4457.548335
4443.621889
4450.486058
4447.349881
4458.275946
4430.145885
4429.975933
4430.401502
4430.052830
4430.536270
4430.061587
4430.690556
4430.114644
4430.719546
4430.309115
4430.734831
4430.635173
4430.815374
4430.446185
4433.584327
4430.973120
4438.222911
4446.017129
4436.387522
4425.999589
4423.962084
4448.983093
4408.246994
4417.463056
4421.526260
4430.244399
4427.289612
4457.281314
4454.633587
4460.055133
4455.572447
4430.495124
4430.087310
4430.711782
4430.260359
4430.751491
4430.325132
4430.802992
4430.455906
4430.784971
4430.580426
4430.812467
4430.581113
4430.922073
4430.342127
4431.698973
4426.329474
4428.574007
4439.062839
4435.778514
4423.553618
4433.520712
4454.630727
4438.526808
4464.076824
4468.757020
4409.716745
4435.298056
4421.175770
4446.254206
4461.387019
4454.553914
4430.909102
4430.507557
4430.662821
4430.795706
4430.589772
4430.869389
4430.724369
4430.804734
4430.863268
4430.770920
4431.055280
4430.613832
4431.091787
4430.822949
4430.040281
4423.040498
4443.114018
4398.564173
4437.033442
4424.408221
4431.455102
4441.598139
4423.611899
4448.044494
4462.726222
4463.488964
4468.182174
4465.999360
4466.232972
4456.678586
4453.423396
4431.161842
4430.784409
4430.771876
4431.007589
4430.887486
4430.989093
4430.948887
4431.102948
4430.928884
4431.196320
4430.771989
4431.394991
4430.244474
4431.004485
4431.623020
4439.701962
4445.058467
4419.693796
4422.239598
4429.040808
4443.110289
4435.803103
4424.134781
4444.959279
4445.725917
4451.519759
4469.772527
4457.699709
4464.131009
4470.343621
4451.447322
4431.601766
4430.862477
4431.195190
4431.088104
4431.153079
4431.172876
4431.214968
4431.250807
4431.180658
4431.341224
4431.278071
4430.953605
4431.510184
4431.014928
4430.534672
4419.530298
4450.533815
4429.644146
4422.958993
4422.714378
4406.961253
4431.678792
4442.540493
4437.596998
4413.934002
4419.609535
4464.130670
4454.685330
4454.917466
4462.381897
4450.401155
4432.037112
4431.123651
4431.320846
4431.454525
4431.319481
4431.451588
4431.431703
4431.427634
4431.601887
4431.262259
4431.583381
4431.419363
4431.200565
4430.621969
4430.808133
4433.000819
4437.909656
4411.386126
4440.672222
4431.482792
4447.146118
4449.133211
4467.100827
4415.631096
4441.589131
4449.244114
4444.643937
4453.246885
4440.371691
4453.451557
4451.342199
4432.350644
4431.403219
4431.490603
4431.669198
4431.500119
4431.716095
4431.591052
4431.833207
4431.490350
4432.068419
4431.536769
4431.745852
4431.495261
4431.211850
4430.629305
4440.873301
4427.838378
4445.128917
4415.487470
4463.389618
4456.843094
4435.352705
4456.711722
4477.493805
4423.813620
4437.828610
4449.963090
4443.859359
4437.060012
4469.029114
4453.166066