# vtk DataFile Version 2.0
mfree iwf
ASCII

DATASET UNSTRUCTURED_GRID
POINTS 8343 float
0.000001 0.000446 0.000000
0.000001 0.000451 0.000000
0.000001 0.000456 0.000000
0.000001 0.000461 0.000000
0.000001 0.000466 0.000000
0.000001 0.000471 0.000000
0.000001 0.000476 0.000000
0.000002 0.000481 0.000000
0.000002 0.000486 0.000000
0.000002 0.000490 0.000000
0.000001 0.000496 0.000000
0.000003 0.000500 0.000000
0.000071 0.000524 0.000000
0.000071 0.000536 0.000000
0.000071 0.000539 0.000000
0.000071 0.000548 0.000000
0.000071 0.000548 0.000000
0.000071 0.000555 0.000000
0.000071 0.000558 0.000000
0.000071 0.000564 0.000000
0.000071 0.000569 0.000000
0.000071 0.000573 0.000000
0.000071 0.000579 0.000000
0.000071 0.000583 0.000000
0.000071 0.000587 0.000000
0.000071 0.000593 0.000000
0.000071 0.000597 0.000000
0.000071 0.000603 0.000000
0.000071 0.000607 0.000000
0.000071 0.000613 0.000000
0.000071 0.000621 0.000000
0.000072 0.000649 0.000000
0.000006 0.000446 0.000000
0.000006 0.000450 0.000000
0.000006 0.000456 0.000000
0.000006 0.000461 0.000000
0.000006 0.000466 0.000000
0.000006 0.000471 0.000000
0.000006 0.000476 0.000000
0.000007 0.000480 0.000000
0.000006 0.000486 0.000000
0.000008 0.000490 0.000000
0.000005 0.000496 0.000000
0.000007 0.000499 0.000000
0.000074 0.000535 0.000000
0.000077 0.000540 0.000000
0.000076 0.000548 0.000000
0.000076 0.000554 0.000000
0.000076 0.000561 0.000000
0.000076 0.000566 0.000000
0.000076 0.000572 0.000000
0.000076 0.000577 0.000000
0.000076 0.000584 0.000000
0.000076 0.000589 0.000000
0.000076 0.000596 0.000000
0.000076 0.000602 0.000000
0.000077 0.000609 0.000000
0.000076 0.000615 0.000000
0.000075 0.000620 0.000000
0.000075 0.000624 0.000000
0.000073 0.000634 0.000000
0.000072 0.000638 0.000000
0.000072 0.000635 0.000000
0.000072 0.000645 0.000000
0.000011 0.000446 0.000000
0.000012 0.000450 0.000000
0.000011 0.000456 0.000000
0.000012 0.000460 0.000000
0.000011 0.000466 0.000000
0.000012 0.000470 0.000000
0.000011 0.000476 0.000000
0.000012 0.000480 0.000000
0.000011 0.000486 0.000000
0.000013 0.000490 0.000000
0.000011 0.000497 0.000000
0.000013 0.000498 0.000000
0.000079 0.000530 0.000000
0.000083 0.000536 0.000000
0.000079 0.000543 0.000000
0.000081 0.000549 0.000000
0.000080 0.000555 0.000000
0.000080 0.000558 0.000000
0.000082 0.000562 0.000000
0.000080 0.000569 0.000000
0.000082 0.000573 0.000000
0.000080 0.000579 0.000000
0.000082 0.000584 0.000000
0.000080 0.000590 0.000000
0.000081 0.000595 0.000000
0.000082 0.000603 0.000000
0.000079 0.000605 0.000000
0.000078 0.000616 0.000000
0.000077 0.000628 0.000000
0.000076 0.000632 0.000000
0.000074 0.000641 0.000000
0.000077 0.000647 0.000000
0.000016 0.000446 0.000000
0.000017 0.000450 0.000000
0.000015 0.000456 0.000000
0.000017 0.000460 0.000000
0.000015 0.000466 0.000000
0.000017 0.000470 0.000000
0.000015 0.000476 0.000000
0.000018 0.000480 0.000000
0.000016 0.000486 0.000000
0.000018 0.000489 0.000000
0.000016 0.000496 0.000000
0.000018 0.000498 0.000000
0.000027 0.000500 0.000000
0.000083 0.000543 0.000000
0.000084 0.000548 0.000000
0.000086 0.000553 0.000000
0.000088 0.000562 0.000000
0.000083 0.000567 0.000000
0.000088 0.000573 0.000000
0.000083 0.000579 0.000000
0.000088 0.000585 0.000000
0.000082 0.000589 0.000000
0.000087 0.000596 0.000000
0.000081 0.000599 0.000000
0.000083 0.000608 0.000000
0.000083 0.000613 0.000000
0.000083 0.000619 0.000000
0.000080 0.000623 0.000000
0.000082 0.000627 0.000000
0.000080 0.000636 0.000000
0.000079 0.000640 0.000000
0.000080 0.000647 0.000000
0.000021 0.000446 0.000000
0.000022 0.000450 0.000000
0.000020 0.000456 0.000000
0.000022 0.000460 0.000000
0.000020 0.000466 0.000000
0.000023 0.000470 0.000000
0.000020 0.000476 0.000000
0.000023 0.000480 0.000000
0.000021 0.000486 0.000000
0.000023 0.000491 0.000000
0.000022 0.000498 0.000000
0.000023 0.000499 0.000000
0.000040 0.000500 0.000000
0.000090 0.000540 0.000000
0.000091 0.000547 0.000000
0.000090 0.000551 0.000000
0.000087 0.000558 0.000000
0.000091 0.000560 0.000000
0.000088 0.000568 0.000000
0.000090 0.000573 0.000000
0.000087 0.000579 0.000000
0.000088 0.000587 0.000000
0.000089 0.000591 0.000000
0.000088 0.000600 0.000000
0.000089 0.000604 0.000000
0.000089 0.000610 0.000000
0.000086 0.000616 0.000000
0.000087 0.000626 0.000000
0.000084 0.000632 0.000000
0.000086 0.000637 0.000000
0.000084 0.000640 0.000000
0.000084 0.000647 0.000000
0.000026 0.000445 0.000000
0.000027 0.000450 0.000000
0.000025 0.000455 0.000000
0.000028 0.000460 0.000000
0.000025 0.000465 0.000000
0.000028 0.000471 0.000000
0.000025 0.000475 0.000000
0.000028 0.000480 0.000000
0.000025 0.000485 0.000000
0.000028 0.000490 0.000000
0.000028 0.000493 0.000000
0.000029 0.000500 0.000000
0.000075 0.000533 0.000000
0.000085 0.000539 0.000000
0.000089 0.000544 0.000000
0.000093 0.000554 0.000000
0.000096 0.000558 0.000000
0.000092 0.000566 0.000000
0.000095 0.000569 0.000000
0.000094 0.000577 0.000000
0.000093 0.000582 0.000000
0.000095 0.000587 0.000000
0.000091 0.000594 0.000000
0.000094 0.000599 0.000000
0.000088 0.000608 0.000000
0.000092 0.000617 0.000000
0.000088 0.000620 0.000000
0.000090 0.000623 0.000000
0.000088 0.000630 0.000000
0.000089 0.000633 0.000000
0.000089 0.000642 0.000000
0.000088 0.000647 0.000000
0.000031 0.000445 0.000000
0.000032 0.000450 0.000000
0.000030 0.000455 0.000000
0.000032 0.000460 0.000000
0.000030 0.000466 0.000000
0.000033 0.000468 0.000000
0.000030 0.000475 0.000000
0.000032 0.000480 0.000000
0.000031 0.000485 0.000000
0.000033 0.000492 0.000000
0.000035 0.000498 0.000000
0.000032 0.000499 0.000000
0.000049 0.000500 0.000000
0.000090 0.000535 0.000000
0.000098 0.000547 0.000000
0.000097 0.000551 0.000000
0.000098 0.000562 0.000000
0.000099 0.000566 0.000000
0.000097 0.000572 0.000000
0.000097 0.000579 0.000000
0.000099 0.000582 0.000000
0.000096 0.000592 0.000000
0.000099 0.000595 0.000000
0.000096 0.000604 0.000000
0.000097 0.000608 0.000000
0.000094 0.000612 0.000000
0.000096 0.000618 0.000000
0.000094 0.000626 0.000000
0.000096 0.000633 0.000000
0.000093 0.000637 0.000000
0.000093 0.000642 0.000000
0.000093 0.000647 0.000000
0.000036 0.000445 0.000000
0.000036 0.000450 0.000000
0.000037 0.000454 0.000000
0.000036 0.000460 0.000000
0.000037 0.000466 0.000000
0.000036 0.000471 0.000000
0.000035 0.000476 0.000000
0.000038 0.000481 0.000000
0.000036 0.000485 0.000000
0.000037 0.000489 0.000000
0.000039 0.000492 0.000000
0.000037 0.000499 0.000000
0.000071 0.000516 0.000000
0.000076 0.000530 0.000000
0.000099 0.000543 0.000000
0.000100 0.000553 0.000000
0.000101 0.000558 0.000000
0.000105 0.000564 0.000000
0.000101 0.000573 0.000000
0.000103 0.000577 0.000000
0.000099 0.000588 0.000000
0.000103 0.000588 0.000000
0.000097 0.000600 0.000000
0.000101 0.000600 0.000000
0.000099 0.000609 0.000000
0.000099 0.000616 0.000000
0.000097 0.000622 0.000000
0.000100 0.000627 0.000000
0.000097 0.000630 0.000000
0.000098 0.000636 0.000000
0.000098 0.000642 0.000000
0.000098 0.000647 0.000000
0.000041 0.000445 0.000000
0.000042 0.000450 0.000000
0.000039 0.000458 0.000000
0.000043 0.000458 0.000000
0.000042 0.000465 0.000000
0.000041 0.000470 0.000000
0.000043 0.000474 0.000000
0.000041 0.000478 0.000000
0.000043 0.000486 0.000000
0.000043 0.000492 0.000000
0.000043 0.000497 0.000000
0.000046 0.000498 0.000000
0.000071 0.000505 0.000000
0.000083 0.000532 0.000000
0.000101 0.000542 0.000000
0.000107 0.000552 0.000000
0.000104 0.000560 0.000000
0.000104 0.000568 0.000000
0.000107 0.000572 0.000000
0.000104 0.000580 0.000000
0.000106 0.000584 0.000000
0.000104 0.000592 0.000000
0.000105 0.000597 0.000000
0.000105 0.000603 0.000000
0.000103 0.000610 0.000000
0.000104 0.000614 0.000000
0.000103 0.000619 0.000000
0.000103 0.000624 0.000000
0.000103 0.000632 0.000000
0.000103 0.000637 0.000000
0.000103 0.000642 0.000000
0.000103 0.000647 0.000000
0.000045 0.000445 0.000000
0.000047 0.000450 0.000000
0.000046 0.000454 0.000000
0.000047 0.000461 0.000000
0.000045 0.000466 0.000000
0.000048 0.000469 0.000000
0.000047 0.000477 0.000000
0.000044 0.000481 0.000000
0.000052 0.000484 0.000000
0.000046 0.000486 0.000000
0.000049 0.000493 0.000000
0.000052 0.000498 0.000000
0.000071 0.000513 0.000000
0.000078 0.000522 0.000000
0.000094 0.000541 0.000000
0.000110 0.000555 0.000000
0.000108 0.000560 0.000000
0.000110 0.000567 0.000000
0.000110 0.000574 0.000000
0.000110 0.000581 0.000000
0.000108 0.000589 0.000000
0.000111 0.000594 0.000000
0.000108 0.000599 0.000000
0.000107 0.000608 0.000000
0.000110 0.000607 0.000000
0.000108 0.000616 0.000000
0.000109 0.000623 0.000000
0.000107 0.000627 0.000000
0.000109 0.000632 0.000000
0.000108 0.000637 0.000000
0.000108 0.000642 0.000000
0.000108 0.000647 0.000000
0.000050 0.000445 0.000000
0.000052 0.000450 0.000000
0.000050 0.000456 0.000000
0.000053 0.000459 0.000000
0.000051 0.000465 0.000000
0.000053 0.000471 0.000000
0.000050 0.000474 0.000000
0.000052 0.000479 0.000000
0.000050 0.000488 0.000000
0.000054 0.000491 0.000000
0.000059 0.000493 0.000000
0.000055 0.000498 0.000000
0.000073 0.000511 0.000000
0.000077 0.000521 0.000000
0.000089 0.000530 0.000000
0.000105 0.000549 0.000000
0.000112 0.000560 0.000000
0.000113 0.000567 0.000000
0.000114 0.000573 0.000000
0.000112 0.000579 0.000000
0.000115 0.000585 0.000000
0.000112 0.000590 0.000000
0.000113 0.000598 0.000000
0.000114 0.000602 0.000000
0.000112 0.000611 0.000000
0.000113 0.000615 0.000000
0.000112 0.000620 0.000000
0.000114 0.000625 0.000000
0.000112 0.000631 0.000000
0.000113 0.000637 0.000000
0.000113 0.000642 0.000000
0.000113 0.000647 0.000000
0.000055 0.000445 0.000000
0.000057 0.000450 0.000000
0.000056 0.000454 0.000000
0.000057 0.000461 0.000000
0.000055 0.000465 0.000000
0.000058 0.000469 0.000000
0.000056 0.000476 0.000000
0.000059 0.000481 0.000000
0.000055 0.000484 0.000000
0.000058 0.000487 0.000000
0.000057 0.000497 0.000000
0.000061 0.000497 0.000000
0.000074 0.000517 0.000000
0.000081 0.000524 0.000000
0.000086 0.000530 0.000000
[...]
POINT_DATA 8343
SCALARS density float 1
LOOKUP_TABLE default
4423.213221
4426.215193
4421.584176
4421.565989
4426.924497
4426.454717
4433.525184
4430.916330
4443.440870
4426.014088
4435.623956
4396.685603
4603.504445
4487.606537
4533.950756
4474.635162
4487.293641
4500.078896
4515.503889
4499.176162
4511.468848
4503.544281
4492.216096
4504.336562
4486.143380
4490.925507
4491.314394
4455.432372
4491.222907
4435.714661
4528.534761
4408.586367
4426.400962
4428.736467
4428.257825
4429.515483
4430.736596
4419.097180
4428.198698
4426.903146
4405.730946
4413.745729
4444.166160
4397.408343
4459.640387
4439.950657
4464.398252
4430.585069
4437.997153
4453.375770
4439.679446
4442.966539
4425.670243
4415.769514
4407.796371
4424.468644
4408.173107
4417.625937
4390.863990
4366.956873
4440.269527
4399.503538
4443.741340
4471.857156
4425.280095
4412.424295
4433.344201
4417.614427
4436.401154
4415.838945
4449.069037
4382.615470
4479.310726
4369.357381
4480.491459
4409.507347
4462.725084
4488.033066
4473.726786
4452.278677
4466.160706
4488.724492
4445.459698
4479.604423
4430.841852
4493.678338
4415.585734
4505.930131
4408.487192
4436.903979
4469.527931
4503.759844
4403.262439
4485.419071
4415.230047
4435.544446
4425.501101
4433.829178
4439.416222
4430.985406
4441.868933
4415.218640
4456.544711
4398.716634
4471.574327
4379.004494
4515.466003
4397.073928
4432.354923
4469.555170
4453.189879
4459.528281
4459.721035
4463.634904
4456.833851
4462.357097
4452.351295
4460.783987
4431.933874
4479.303461
4378.207676
4455.244473
4360.200562
4526.251296
4468.354295
4380.822995
4429.529857
4436.242309
4424.909535
4436.889360
4439.485489
4423.236583
4442.482887
4431.854693
4431.900345
4428.833550
4463.319491
4367.575590
4472.029147
4428.769510
4411.940871
4443.590177
4413.577703
4484.618334
4445.269193
4460.525240
4452.331409
4464.295362
4429.122471
4455.020144
4423.672185
4444.785558
4422.407578
4475.525247
4412.781230
4400.523105
4377.858086
4456.647012
4455.045408
4431.711749
4432.759134
4445.652049
4428.189371
4446.158822
4434.297857
4418.524895
4443.387375
4415.627567
4416.504882
4466.411281
4433.922625
4422.601549
4453.235578
4452.975209
4474.854198
4437.570151
4446.448746
4443.644408
4451.708064
4444.379794
4458.350597
4440.492035
4460.507435
4462.185891
4450.243087
4439.721040
4450.656758
4464.922396
4477.496962
4448.661099
4405.592057
4435.476372
4436.142439
4422.679586
4412.094981
4411.639970
4428.581184
4430.182451
4436.517246
4429.749888
4420.633454
4381.622355
4467.995498
4412.714749
4427.682506
4456.738999
4424.303542
4495.824558
4465.846768
4457.564975
4450.100531
4462.616571
4420.550463
4416.366023
4433.419997
4408.067657
4451.030208
4396.353570
4445.458139
4376.740223
4424.447306
4404.388186
4445.526958
4433.696223
4436.492761
4440.194713
4405.982812
4440.212482
4430.923845
4413.693904
4420.276484
4406.454551
4438.098646
4429.766529
4433.913973
4451.054560
4721.426910
4459.480054
4457.045724
4430.941955
4473.470204
4453.609831
4461.445751
4435.449134
4475.620629
4454.197815
4452.728876
4448.273964
4441.029920
4432.256463
4428.886050
4464.847566
4441.857936
4431.535189
4450.950565
4425.150329
4420.642714
4422.250954
4452.839040
4407.707395
4415.992226
4429.811791
4418.493808
4445.520096
4448.888309
4403.547799
4430.660231
4442.709514
4802.535359
4438.427711
4492.925884
4478.130535
4454.581897
4443.295326
4465.687733
4451.354354
4452.376424
4425.982270
4461.412686
4407.879407
4439.366751
4417.961673
4441.997719
4423.566008
4413.701704
4424.649883
4413.029344
4433.369327
4436.374674
4434.687226
4419.140302
4428.765384
4458.553058
4410.734532
4446.452268
4387.934866
4452.594658
4431.302448
4459.424080
4426.682874
4448.165497
4442.503467
4489.490171
4438.024551
4462.711247
4452.564015
4438.724538
4439.928513
4449.177207
4430.757885
4454.968107
4459.012687
4458.622223
4422.928512
4446.707231
4421.953883
4456.324390
4436.028540
4438.836772
4425.214955
4434.409107
4421.883393
4436.377977
4432.087498
4411.485863
4426.170405
4451.028141
4405.147177
4400.211065
4437.692981
4558.649518
4384.589359
4368.402442
4445.202956
4452.489499
4474.205465
4459.635846
4472.729709
4431.533569
4464.325577
4420.535624
4461.299400
4439.985948
4439.632705
4438.180499
4444.332091
4448.868239
4421.540651
4441.945942
4401.363473
4436.096155
4422.897946
4439.194167
4432.529139
4428.953111
4422.938687
4429.460611
4437.834555
4412.127608
4427.992811
4489.334378
4347.460476
4408.594504
4399.356125
4401.118766
4530.387511
4489.012421
4433.845844
4407.924955
4474.025338
4465.141542
4456.188872
4464.601654
4422.002940
4466.241347
4419.191653
4466.871362
4432.981153
4441.663121
4418.406672
4444.657587
4428.461820
4436.410158
4432.133246
4427.297898
4417.781343
4430.082321
4434.118443
4421.344008
4421.526238
4439.389324
4408.216017
4459.891039
4402.782753
4448.187668
4421.306380
4380.319416
4573.040215
4433.212593
4415.047658
4489.050738
4463.155094
4468.460977
4437.280963
4454.747308
4443.014532
4454.720730
4425.337508
4452.292883
4414.344550
4455.749581
4440.088699
4433.268200
4431.559669
4414.061212
4424.954688
4443.886643
4436.352685
4424.496530
4429.513114
4438.556983
4413.690535
4451.532989
4429.613707
4463.084388
4382.990339
4534.214693
4368.858156
4459.586069
4544.410381
4482.013660
4457.088730
4441.998750
4462.900880
4449.987908
4460.039039
4458.575534
4450.327167
4438.794824
4458.272451
4420.675897
4468.943342
4408.977619
4436.680396
4413.311050
4437.472952
4429.302389
4426.330156
4426.868924
4427.475672
4418.392757
4421.447960
4423.883482
4423.694580
4440.433888
4396.762454
4432.031201
4397.218433
4526.145516
4474.571977
4501.869172
4429.887886
4516.676462
4535.356744
4421.228902
4443.240123
4467.317958
4474.507903
4452.025022
4448.086827
4455.701974
4452.414904
4447.391494
4444.600089
4439.958418
4454.593694
4435.902498
4422.147705
4424.761952
4427.019474
4440.747843
4438.535957
4426.632744
4435.294797
4432.813707
4411.272982
4422.548874
4410.628515
4502.668175
4361.782826
4439.747381
4484.213598
4463.472854
4492.854575
4455.574534
4489.791314
4374.034990
4443.937835
4456.376752
4453.839526
4459.580719
4457.487727
4430.951881
4459.080255
4432.340946
4437.281747
4430.897432
4415.687349
4426.032977
4435.378246
4414.700492
4429.043510
4426.441942
4430.172899
4431.750112
4422.959538
4415.617852
4438.121430
4457.829334
4420.400557
4431.632475
4457.496752
4481.276493
4447.599288
4469.857413
4487.657367
4469.569015
4476.373498
4453.206262
4469.395984
4435.376098
4465.402728
4452.830960
4446.826942
4456.420075
4457.019677
4435.873714
4452.499896
4435.253332
4430.872457
4444.367602
4437.139008
4423.925971
4427.878619
4447.636014
4432.463795
4447.534453
4422.420612
4445.681065
4406.604451
4414.669165
4449.776588
4424.136738
4441.268340
4434.669022
4465.048212
4459.276334
4477.047179
4464.708669
4469.419417
4452.850263
4500.775061
4424.220891
4494.527840
4443.816226
4464.423201
4461.162943
4454.283301
4457.997858
4431.930801
4441.611874
4436.654707
4425.550776
4416.637922
4422.487570
4419.424170
4425.944688
4435.871694
4419.660874
4448.487726
4430.047687
4456.963389
4433.141598
4414.786591
4436.251471
4435.565902
4438.824853
4455.988390
4439.814134
4458.017949
4491.275521
4447.319344
4474.107746
4465.917503
4479.007055
4469.161788
4449.034142
4457.472876
4439.657253
4457.827026
4438.041722
4450.051121
4435.883399
4433.842642
4429.491373
4437.592736
4425.800876
4426.166311
4447.953348
4439.474811
4433.696229
4425.379261
4404.193386
4444.954486
4414.168440
4437.813760
4451.825823
4428.904944
4435.433317
4455.346684
4460.556450
4465.554179
4459.810027
4454.678480
4473.686402
4443.728557
4430.878535
4433.968982
4443.606635
4445.812505
4461.019346
4468.597321
4447.179190
4449.308197
4432.847590
4443.194721
4436.282369
4423.342088
4415.950718
4423.950805
4412.947193
4434.185074
4416.233996
4438.242214
4436.360355
4438.140160
4421.100490
4457.417910
4419.221184
4457.292993
4458.348634
4422.870369
4441.956168
4453.691195
4449.617369
4446.330974
4459.911704
4472.239443
4408.295961
4457.250985
4445.391336
4455.726565
4475.884722
4458.398177
4452.139497
4459.938338
4440.726445
4441.355411
4420.189927
4427.473451
4425.723739
4418.922743
4448.917181
4430.387032
4427.118063
4432.081519
4411.634507
4424.916061
4416.771736
4420.336580
4425.347677
4459.567247
4432.883247
4468.442575
4461.022164
4409.201734
4463.905507
4458.285083
4475.832483
4484.499274
4454.674900
4376.102375
4424.897111
4387.264210
4445.701599
4447.338632
4455.167761
4437.591914
4445.102259
4442.556224
4430.225235
4443.071446
4418.881844
4420.815297
4420.134355
4442.140856
4445.025861
4406.983080
4418.794234
4445.990488
4411.269504
4452.623736
4430.877525
4436.053565
4435.635049
4445.348217
4459.387722
4461.799709
4440.483061
4457.508501
4435.362742
4463.406636
4409.667178
4497.321754
4461.402954
4429.292461
4438.666161
4465.318273
4456.832567
4456.266993
4454.624127
4446.938074
4446.060873
4415.781227
4411.080796
4418.264751
4443.768518
4443.483297
4400.519877
4445.499649
4457.326611
4409.588062
4428.877977
4433.325383
4413.395832
4439.975156
4431.811271
4430.945432
4457.303915
4454.250630
4439.912707
4473.085427
4426.125404
4461.631521
4431.409020
4466.675890
4431.395290
4461.932498
4454.717244
4473.558548
4473.394269
4485.344009
4439.243286
4456.255569
4438.946337
4436.314515
4436.047143
4411.909753
4399.679647
4424.021141
4422.929140
4423.667585
4424.663722
4424.747841
4425.401853
4425.605799
4426.031939
4426.316501
4426.758752
4426.904391
4427.365668
4427.373418
4428.301375
4405.517267
4421.365124
4420.543482
4422.035621
4423.068260
4423.336890
4424.320018
4424.419293
4425.307612
4425.430552
4426.118266
4426.419827
4426.789870
4426.615716
4430.809715
4410.979371
4421.949663
4420.223810
4422.437309
4423.305596
4423.649997
4424.805549
4424.700910
4425.918371
4425.593963
4427.022185
4426.477124
4427.620463
4427.896295
4429.647350
4414.491756
4423.219748
4421.509391
4423.371675
4423.773742
4424.492097
4425.234363
4425.425987
4426.452818
4426.308468
4427.538842
4427.025930
4429.107013
4428.006008
4432.065817
4418.299163
4424.016902
4423.061994
4424.028902
4424.723413
4425.026334
4425.991128
4425.991479
4427.027649
4426.924617
4428.085819
4427.825138
4429.321626
4427.918240
4432.789856
4420.422938
4425.076447
4424.306457
4424.772966
4425.773351
4425.611820
4426.838213
4426.487382
4427.866094
4427.436288
4428.856389
4428.343363
4429.901305
4428.853462
4430.569872
4422.575142
4426.048054
4425.355319
4425.845948
4426.428114
4426.485927
4427.412450
4427.326755
4428.326447
4428.189522
4429.341677
4429.158135
4430.209465
4429.603471
4431.432928
4424.419969
4426.906599
4426.336169
4426.758520
4427.145064
4427.411254
4427.933855
4428.157724
4428.756448
4429.120186
4429.741475
4429.877303
4431.215744
4430.083298
4432.072259
4425.983106
4427.682478
4427.312742
4427.554162
4427.981613
4428.033905
4428.681688
4428.731191
4429.536690
4429.505832
4430.504934
4430.688697
4431.544695
4431.735957
4431.951375
4427.524504
4428.405658
4428.104718
4428.364427
4428.648000
4428.778789
4429.333645
4429.369265
4430.050100
4430.248634
4431.099451
4431.298553
4432.416908
4432.751414
4432.704320
4428.813930
4429.093091
4428.838208
4429.193346
4429.192173
4429.598492
4429.712035
4430.180419
4430.455009
4430.954731
4431.285189
4432.106406
4433.002059
4433.074906
4434.438578
4429.901557
4429.700416
4429.469870
4429.884295
4429.742326
4430.257121
4430.255954
4430.788121
4430.846668
4431.448369
4431.937178
4432.400032
4432.965783
4434.054679
4434.176078
4430.966169
4430.162422
4430.213602
4430.395876
4430.413048
4430.714625
4430.848203
4431.167375
4431.469180
4431.882399
4432.090310
4432.874588
4433.449961
4434.693077
4434.345680
4428.369573
4445.046268
4454.418786
4414.525190
4439.071301
4445.226295
4414.842995
4455.165780
4459.155882
4442.747173
4472.040063
4398.414590
4448.272805
4464.451125
4430.776711
4412.795471
4431.840732
4430.570117
4430.813704
4430.859546
4430.961887
4431.151180
4431.402957
4431.592290
4431.895446
4432.123341
4432.681306
4433.151520
4433.258038
4434.995013
4436.117199
4431.416722
4446.836205
4417.297575
4459.408576
4468.715822
4459.144345
4420.145142
4450.281089
4459.813651
4428.405404
4468.090181
4432.879120
4459.520494
4459.596328
4462.593749
4409.845698
4432.606981
4431.006357
4431.335473
4431.362165
4431.415850
4431.644023
4431.758713
4432.031864
4432.313772
4432.522157
4432.963834
4433.063000
4433.842427
4434.317485
4433.796583
4419.736213
4446.604819
4428.382852
4440.229766
4421.222182
4408.182256
4477.625055
4455.540480
4446.588684
4447.131569
4424.117789
4434.612863
4467.811740
4429.586149
4470.318838
4410.924963
4433.268848
4431.403119
4431.680994
4431.848894
4431.738601
4432.082619
4432.101680
4432.503285
4432.511912
4432.973098
4433.042421
4433.741299
4433.630468
4434.143675
4435.007995
4426.146912
4427.688852
4416.228604
4426.238706
4435.268729
4437.019393
4415.473877
4403.585182
4457.683537
4455.878566
4452.184534
4425.036944
4400.524594
4439.256478
4462.804945
4408.324552
4433.809713
4431.713868
4432.110301
4432.249706
4432.051087
4432.543510
4432.336117
4432.901407
4432.797505
4433.399945
4433.197214
4433.952658
4433.212015
4434.940471
4432.880609
4444.591634
4433.862423
4447.957336
4433.739987
4441.786569
4401.453118
4448.090603
4432.144905
4429.804468
4435.890009
4430.430297
4422.449840
4444.675215
4447.515634
4393.428450
4404.615246
4434.231226
4431.972042
4432.410615
4432.504019
4432.420278
4432.784817
4432.660466
4433.227215
4433.077696
4433.559941
4433.736840
4433.990948
4434.524385
4435.379270
4434.255358
4435.136568
4447.256205
4424.694679
4459.515158
4455.623811
4409.313501
4464.726553
4451.381010
4413.873668
4412.108456
4408.782959
4416.353372
4413.326081
4435.242378
4491.218321
4396.827503
4434.606614
4432.164586
4432.755495
4432.762876
4432.733169
4432.978122
4433.090403
4433.280073
4433.506973
4433.875766
4433.908000
4434.625462
4434.282683
4435.090169
4437.700720
4444.918502
4415.574800
4432.556894
4438.993380
4464.480532
4441.874867
4452.459658
4420.615774
4431.132016
4422.043997
4412.148714
4433.354708
4396.609490
4451.665345
4480.367523
4427.198102
4434.904959
4432.284992
4433.024352
4432.903024
4433.002445
4433.208664
4433.223968
4433.619788
4433.700172
4434.016694
4434.342948
4434.671247
4435.478659
4436.229183
4434.655734
4441.549697
4426.066206
4439.007855
4423.509805
4410.056983
4447.864762
4441.480992
4454.649474
4458.955749
4439.165380
4444.150732
4405.924192
4409.138429
4435.929514
4442.809012
4423.604624
4435.169042
4432.397274
4433.293569
4433.070769
4433.229352
4433.339321
4433.498395
4433.738859
4433.910670
4434.205988
4434.741463
4434.833543
4435.165955
4436.704640
4436.323204
4418.635543
4429.583373
4456.443296
4464.046401
4427.018178
4438.513542
4425.912867
4437.985912
4453.739960
4447.628448
4438.166432
4433.104386
4453.439610
4459.419587
4477.143179
4471.276391
4435.331430
4432.469963
4433.431659
4433.157295
4433.435988
4433.387435
4433.766179
4433.692636
4434.279887
4434.274628
4434.617626
4435.275999
4435.890750
4436.294229
4437.847813
4413.798693
4436.743946
4394.337007
4398.927992
4429.171045
4452.773132
4430.512450
4447.473662
4451.094287
4438.139620
4453.525029
4453.356690
4471.782161
4460.814756
4460.910663
4508.084649
4435.477763
4432.499621
4433.655365
4433.199791
4433.596813
4433.510796
4433.802723
4433.969585
4434.189088
4434.350995
4435.137858
4434.810801
4435.507990
4435.850397
4435.160655
4442.941995
4446.796743
4468.769874
4452.639636
4447.583380
4453.098952
4410.349773
4447.622942
4435.320537
4428.761636
4459.442434
4441.014865
4478.989213
4466.237966
4449.372393
4455.552715
4435.541155
4432.576481
4433.643315
4433.317926
4433.610047
4433.609381
4433.875985
4433.942968
4434.356539
4434.482173
4434.749008
4435.234190
4435.589664
4436.141117
4435.238141
4444.731227
4446.909644
4423.127812
4398.138288
4430.326548
4430.940146
4453.584073
4452.685754
4438.253624
4451.909987
4450.820115
4452.002579
4453.791444
4444.272401
4459.853674
4456.821385
4435.530262
4432.676900
4433.626931
4433.441706
4433.601305
4433.674594
4433.920711
4434.030294
4434.306336
4434.505775
4434.885687
4435.332421
4434.901572
4436.149795
4435.234341
4432.001625
4412.512123
4440.272710
4465.178338
4457.296743
4432.062048
4437.015595
4446.214933
4454.352241
4448.128049
4428.684744
4455.136017
4443.382589
4458.601561
4472.014547
4453.964662
4435.446013
4432.683720
4433.599938
4433.424014
4433.567167
4433.783500
4433.753852
4434.180895
4434.187338
4434.569774
4434.852213
4434.930043
4436.238863
4436.656531
4435.702721
4431.722213
4463.081915
4422.678135
4428.453721
4414.715565
4425.191535
4455.526831
4425.921999
4418.853234
4460.024467
4440.571056
4456.036992
4427.024010
4434.397945
4447.497965
4446.685299
4435.351752
4432.691057
4433.578816
4433.469279
4433.523126
4433.749940
4433.798847
4434.103697
4434.152994
4434.553096
4434.594782
4435.427315
4434.800711
4436.567651
4437.316880
4445.831455
4438.178092
4456.410151
4426.109818
4438.712890
4455.856422
4442.389813
4451.258946
4424.356333
4444.417568
4432.500808
4452.438556
4454.097570
4466.023717
4459.779788
4451.635824
4435.200303
4432.656219
4433.513314
4433.355434
4433.550518
4433.634097
4433.793822
4433.950623
4434.158095
4434.377671
4434.614562
4434.860823
4435.564567
4436.121692
4434.545295
4445.992551
4459.105130
4425.657092
4437.194871
4447.082433
4443.277076
4442.512240
4455.820886
4442.899556
4461.126073
4450.129436
4440.062944
4439.775392
4431.723055
4444.576797
4451.603249
4435.098917
4432.541395
4433.578525
4433.238407
4433.547637
4433.540916
4433.739311
4433.850536
4434.105642
4434.097409
4434.697757
4434.577879
4435.303322
4435.318743
4437.190698
4420.799254
4458.946456
4429.312782
4448.078840
4446.021125
4443.993886
4441.549485
4400.813387
4404.978393
4439.975749
4417.372302
4408.054622
4443.641339
4443.036823
4446.850423
4450.241701
4434.919171
4432.485884
4433.463466
4433.176510
4433.452966
4433.428349
4433.671597
4433.659507
4433.985461
4433.986058
4434.293122
4434.458580
4434.831589
4435.018083
4436.127654
4420.430691
4437.268306
4416.913668
4436.603659
4403.559551
4436.431896
4434.776032
4436.382115
4449.483370
4466.297138
4439.497261
4435.407124
4434.954348
4431.396382
4438.096486
4449.986164
4434.688052
4432.484138
4433.341378
4433.109322
4433.359087
4433.354390
4433.519213
4433.572078
4433.789025
4433.778858
4434.087250
4433.981542
4434.256972
4434.946112
4432.988153
4432.247026
4414.367399
4445.495054
4447.931471
4395.090413
4443.904450
4413.392360
4427.330251
4433.438840
4448.572423
4464.367508
4465.412839
4443.299517
4461.813308
4447.422119
4447.887270
4434.453541
4432.398534
4433.212330
4433.022070
4433.210899
4433.265670
4433.346870
4433.459183
4433.553830
4433.591656
4433.705247
4433.895949
4433.309862
4434.391660
4433.940922
4430.604393
4412.570356
4447.711248
4395.612374
4444.172388
4427.321410
4443.858830
4446.740424
4421.401431
4432.778698
4445.699927
4435.118815
4449.642462
4447.517744
4443.631985
4448.213849
4434.287602
4432.362823
4433.103108
4432.983894
4433.051926
4433.214817
4433.162601
4433.368596
4433.306799
4433.566445
4433.227121
4433.449774
4433.591988
4433.024060
4432.304523
4432.993123
4420.605393
4428.117899
4419.453069
4448.872279
4416.270012
4442.130992
4428.701613
4413.982247
4442.485633
4449.303286
4448.623520
4454.916715
4451.800701
4446.620738
4447.893480
4434.037852
4432.355045
4432.897840
4432.937392
4432.880021
4433.146145
4432.971894
4433.293720
4433.110714
4433.205266
4433.264423
4433.063647
4432.722499
4432.754425
4432.309821
4432.070587
4425.366045
4443.662189
4425.429462
4429.212581
4453.472934
4450.897236
4441.651846
4447.663599
4443.733169
4415.479469
4438.108103
4446.709599
4449.968973
4450.729695
4448.929580
4433.822223
4432.314131
4432.784705
4432.862476
4432.774543
4433.047246
4432.899187
4433.099788
4433.034462
4433.222166
4432.762185
4433.086416
4432.358543
4432.382194
4431.607249
4437.308551
4437.727909
4446.949854
4441.995321
4445.815032
4444.996698
4468.086469
4432.951038
4436.510671
4449.807496
4449.742669
4441.512992
4441.318288
4437.087272
4446.857760
4443.098184