# vtk DataFile Version 2.0
mfree iwf
ASCII

DATASET UNSTRUCTURED_GRID
POINTS 9906 float
0.000000 0.000445 0.000000
0.000000 0.000450 0.000000
0.000000 0.000455 0.000000
0.000000 0.000460 0.000000
0.000000 0.000465 0.000000
0.000000 0.000470 0.000000
0.000000 0.000475 0.000000
0.000000 0.000480 0.000000
0.000000 0.000485 0.000000
0.000000 0.000490 0.000000
-0.000000 0.000496 0.000000
0.000002 0.000500 0.000000
0.000476 0.000798 0.000000
0.000483 0.000804 0.000000
0.000524 0.000826 0.000000
0.000530 0.000828 0.000000
0.000530 0.000828 0.000000
0.000535 0.000831 0.000000
0.000543 0.000833 0.000000
0.000539 0.000832 0.000000
0.000552 0.000838 0.000000
0.000577 0.000848 0.000000
0.000584 0.000848 0.000000
0.000588 0.000848 0.000000
0.000593 0.000849 0.000000
0.000598 0.000849 0.000000
0.000603 0.000849 0.000000
0.000608 0.000849 0.000000
0.000612 0.000848 0.000000
0.000619 0.000848 0.000000
0.000625 0.000849 0.000000
0.000650 0.000851 0.000000
0.000005 0.000445 0.000000
0.000005 0.000450 0.000000
0.000005 0.000455 0.000000
0.000005 0.000460 0.000000
0.000005 0.000465 0.000000
0.000005 0.000470 0.000000
0.000005 0.000475 0.000000
0.000005 0.000480 0.000000
0.000005 0.000485 0.000000
0.000006 0.000490 0.000000
0.000004 0.000496 0.000000
0.000006 0.000499 0.000000
0.000519 0.000823 0.000000
0.000531 0.000821 0.000000
0.000559 0.000839 0.000000
0.000565 0.000841 0.000000
0.000570 0.000843 0.000000
0.000574 0.000844 0.000000
0.000577 0.000844 0.000000
0.000581 0.000844 0.000000
0.000587 0.000843 0.000000
0.000593 0.000844 0.000000
0.000599 0.000844 0.000000
0.000606 0.000844 0.000000
0.000613 0.000843 0.000000
0.000621 0.000844 0.000000
0.000625 0.000844 0.000000
0.000631 0.000844 0.000000
0.000640 0.000848 0.000000
0.000643 0.000848 0.000000
0.000637 0.000848 0.000000
0.000648 0.000850 0.000000
0.000010 0.000445 0.000000
0.000010 0.000450 0.000000
0.000010 0.000455 0.000000
0.000010 0.000460 0.000000
0.000010 0.000465 0.000000
0.000011 0.000470 0.000000
0.000010 0.000475 0.000000
0.000011 0.000479 0.000000
0.000009 0.000486 0.000000
0.000012 0.000489 0.000000
0.000009 0.000497 0.000000
0.000011 0.000498 0.000000
0.000524 0.000820 0.000000
0.000535 0.000821 0.000000
0.000547 0.000831 0.000000
0.000553 0.000834 0.000000
0.000558 0.000836 0.000000
0.000562 0.000839 0.000000
0.000562 0.000831 0.000000
0.000570 0.000835 0.000000
0.000574 0.000837 0.000000
0.000581 0.000839 0.000000
0.000587 0.000839 0.000000
0.000594 0.000841 0.000000
0.000597 0.000838 0.000000
0.000603 0.000836 0.000000
0.000608 0.000841 0.000000
0.000618 0.000842 0.000000
0.000634 0.000844 0.000000
0.000636 0.000845 0.000000
0.000645 0.000845 0.000000
0.000650 0.000842 0.000000
0.000015 0.000445 0.000000
0.000015 0.000450 0.000000
0.000015 0.000455 0.000000
0.000016 0.000460 0.000000
0.000015 0.000465 0.000000
0.000016 0.000470 0.000000
0.000014 0.000476 0.000000
0.000016 0.000480 0.000000
0.000014 0.000485 0.000000
0.000016 0.000489 0.000000
0.000014 0.000495 0.000000
0.000017 0.000498 0.000000
0.000025 0.000500 0.000000
0.000537 0.000824 0.000000
0.000549 0.000831 0.000000
0.000553 0.000827 0.000000
0.000564 0.000832 0.000000
0.000567 0.000840 0.000000
0.000576 0.000834 0.000000
0.000581 0.000835 0.000000
0.000585 0.000829 0.000000
0.000591 0.000837 0.000000
0.000604 0.000831 0.000000
0.000602 0.000841 0.000000
0.000613 0.000835 0.000000
0.000615 0.000839 0.000000
0.000621 0.000837 0.000000
0.000624 0.000839 0.000000
0.000630 0.000838 0.000000
0.000636 0.000839 0.000000
0.000641 0.000840 0.000000
0.000650 0.000838 0.000000
0.000020 0.000445 0.000000
0.000021 0.000450 0.000000
0.000019 0.000455 0.000000
0.000021 0.000459 0.000000
0.000019 0.000466 0.000000
0.000023 0.000469 0.000000
0.000019 0.000474 0.000000
0.000022 0.000479 0.000000
0.000019 0.000486 0.000000
0.000021 0.000491 0.000000
0.000021 0.000497 0.000000
0.000022 0.000499 0.000000
0.000039 0.000500 0.000000
0.000542 0.000817 0.000000
0.000544 0.000823 0.000000
0.000551 0.000823 0.000000
0.000555 0.000831 0.000000
0.000566 0.000828 0.000000
0.000574 0.000826 0.000000
0.000585 0.000835 0.000000
0.000578 0.000830 0.000000
0.000593 0.000829 0.000000
0.000597 0.000824 0.000000
0.000604 0.000824 0.000000
0.000608 0.000831 0.000000
0.000617 0.000833 0.000000
0.000622 0.000831 0.000000
0.000631 0.000833 0.000000
0.000634 0.000834 0.000000
0.000643 0.000834 0.000000
0.000645 0.000839 0.000000
0.000651 0.000834 0.000000
0.000025 0.000445 0.000000
0.000025 0.000450 0.000000
0.000025 0.000454 0.000000
0.000026 0.000461 0.000000
0.000024 0.000465 0.000000
0.000026 0.000472 0.000000
0.000023 0.000476 0.000000
0.000027 0.000481 0.000000
0.000024 0.000485 0.000000
0.000026 0.000488 0.000000
0.000027 0.000492 0.000000
0.000027 0.000500 0.000000
0.000500 0.000814 0.000000
0.000541 0.000824 0.000000
0.000544 0.000827 0.000000
0.000560 0.000827 0.000000
0.000562 0.000823 0.000000
0.000571 0.000831 0.000000
0.000579 0.000826 0.000000
0.000571 0.000826 0.000000
0.000583 0.000825 0.000000
0.000589 0.000832 0.000000
0.000598 0.000834 0.000000
0.000597 0.000830 0.000000
0.000608 0.000836 0.000000
0.000613 0.000829 0.000000
0.000627 0.000834 0.000000
0.000625 0.000828 0.000000
0.000639 0.000833 0.000000
0.000633 0.000828 0.000000
0.000645 0.000831 0.000000
0.000650 0.000829 0.000000
0.000030 0.000445 0.000000
0.000031 0.000450 0.000000
0.000029 0.000456 0.000000
0.000030 0.000460 0.000000
0.000032 0.000465 0.000000
0.000028 0.000468 0.000000
0.000032 0.000472 0.000000
0.000031 0.000477 0.000000
0.000031 0.000486 0.000000
0.000031 0.000492 0.000000
0.000033 0.000497 0.000000
0.000031 0.000499 0.000000
0.000049 0.000500 0.000000
0.000534 0.000815 0.000000
0.000552 0.000818 0.000000
0.000557 0.000823 0.000000
0.000558 0.000819 0.000000
0.000568 0.000822 0.000000
0.000579 0.000820 0.000000
0.000590 0.000825 0.000000
0.000584 0.000822 0.000000
0.000593 0.000822 0.000000
0.000602 0.000828 0.000000
0.000616 0.000823 0.000000
0.000610 0.000825 0.000000
0.000617 0.000828 0.000000
0.000621 0.000823 0.000000
0.000627 0.000827 0.000000
0.000638 0.000824 0.000000
0.000639 0.000828 0.000000
0.000645 0.000827 0.000000
0.000651 0.000825 0.000000
0.000035 0.000445 0.000000
0.000035 0.000450 0.000000
0.000035 0.000455 0.000000
0.000037 0.000456 0.000000
0.000035 0.000467 0.000000
0.000037 0.000472 0.000000
0.000032 0.000479 0.000000
0.000042 0.000478 0.000000
0.000035 0.000483 0.000000
0.000034 0.000488 0.000000
0.000038 0.000491 0.000000
0.000036 0.000498 0.000000
0.000468 0.000788 0.000000
0.000497 0.000812 0.000000
0.000545 0.000814 0.000000
0.000555 0.000814 0.000000
0.000568 0.000817 0.000000
0.000567 0.000812 0.000000
0.000573 0.000820 0.000000
0.000579 0.000815 0.000000
0.000589 0.000819 0.000000
0.000589 0.000815 0.000000
0.000598 0.000813 0.000000
0.000607 0.000822 0.000000
0.000609 0.000818 0.000000
0.000623 0.000817 0.000000
0.000630 0.000823 0.000000
0.000630 0.000815 0.000000
0.000635 0.000823 0.000000
0.000641 0.000821 0.000000
0.000646 0.000822 0.000000
0.000651 0.000820 0.000000
0.000040 0.000445 0.000000
0.000041 0.000450 0.000000
0.000036 0.000461 0.000000
0.000041 0.000457 0.000000
0.000041 0.000463 0.000000
0.000040 0.000468 0.000000
0.000041 0.000473 0.000000
0.000037 0.000477 0.000000
0.000041 0.000488 0.000000
0.000042 0.000491 0.000000
0.000041 0.000497 0.000000
0.000045 0.000498 0.000000
0.000405 0.000643 0.000000
0.000527 0.000819 0.000000
0.000539 0.000812 0.000000
0.000555 0.000807 0.000000
0.000563 0.000817 0.000000
0.000575 0.000817 0.000000
0.000571 0.000813 0.000000
0.000584 0.000817 0.000000
0.000596 0.000818 0.000000
0.000600 0.000820 0.000000
0.000594 0.000813 0.000000
0.000608 0.000813 0.000000
0.000614 0.000817 0.000000
0.000620 0.000814 0.000000
0.000617 0.000820 0.000000
0.000626 0.000820 0.000000
0.000633 0.000818 0.000000
0.000639 0.000816 0.000000
0.000646 0.000817 0.000000
0.000651 0.000815 0.000000
0.000044 0.000445 0.000000
0.000047 0.000450 0.000000
0.000044 0.000454 0.000000
0.000046 0.000461 0.000000
0.000045 0.000467 0.000000
0.000046 0.000473 0.000000
0.000046 0.000479 0.000000
0.000040 0.000483 0.000000
0.000052 0.000486 0.000000
0.000045 0.000483 0.000000
0.000048 0.000493 0.000000
0.000050 0.000498 0.000000
0.000405 0.000653 0.000000
0.000518 0.000821 0.000000
0.000548 0.000819 0.000000
0.000560 0.000813 0.000000
0.000562 0.000809 0.000000
0.000576 0.000811 0.000000
0.000581 0.000810 0.000000
0.000586 0.000812 0.000000
0.000593 0.000808 0.000000
0.000603 0.000812 0.000000
0.000604 0.000817 0.000000
0.000615 0.000813 0.000000
0.000605 0.000808 0.000000
0.000621 0.000810 0.000000
0.000628 0.000813 0.000000
0.000635 0.000813 0.000000
0.000636 0.000810 0.000000
0.000642 0.000813 0.000000
0.000646 0.000812 0.000000
0.000651 0.000810 0.000000
0.000049 0.000445 0.000000
0.000052 0.000450 0.000000
0.000049 0.000456 0.000000
0.000053 0.000459 0.000000
0.000048 0.000464 0.000000
0.000050 0.000472 0.000000
0.000051 0.000467 0.000000
0.000051 0.000477 0.000000
0.000047 0.000488 0.000000
0.000052 0.000491 0.000000
0.000058 0.000492 0.000000
0.000053 0.000498 0.000000
0.000433 0.000741 0.000000
0.000514 0.000813 0.000000
0.000528 0.000815 0.000000
0.000553 0.000810 0.000000
0.000565 0.000806 0.000000
0.000569 0.000807 0.000000
0.000574 0.000806 0.000000
0.000578 0.000805 0.000000
0.000591 0.000804 0.000000
0.000588 0.000808 0.000000
0.000596 0.000804 0.000000
0.000609 0.000805 0.000000
0.000612 0.000809 0.000000
0.000616 0.000808 0.000000
0.000624 0.000808 0.000000
0.000630 0.000803 0.000000
0.000629 0.000808 0.000000
0.000640 0.000807 0.000000
0.000646 0.000807 0.000000
0.000651 0.000805 0.000000
0.000054 0.000445 0.000000
0.000057 0.000450 0.000000
0.000054 0.000454 0.000000
0.000054 0.000463 0.000000
0.000057 0.000467 0.000000
0.000054 0.000472 0.000000
0.000057 0.000477 0.000000
0.000057 0.000481 0.000000
0.000053 0.000482 0.000000
0.000057 0.000486 0.000000
0.000056 0.000497 0.000000
0.000059 0.000496 0.000000
0.000446 0.000760 0.000000
0.000515 0.000821 0.000000
0.000520 0.000816 0.000000
[...]
POINT_DATA 9906
SCALARS density float 1
LOOKUP_TABLE default
4427.835020
4429.262511
4426.240443
4422.724694
4431.983996
4430.192576
4429.237547
4430.463151
4437.607806
4420.483017
4430.842552
4402.301454
4419.514938
4439.278829
4426.709435
4433.879214
4444.853336
4437.767780
4449.430618
4442.626063
4423.266985
4426.527882
4410.285256
4447.237915
4436.079767
4417.691293
4454.264348
4431.688633
4415.927205
4452.892661
4428.379098
4430.666916
4430.452155
4430.913465
4433.612783
4437.653190
4431.167751
4420.347914
4431.812618
4425.945450
4411.257562
4416.992359
4456.054190
4408.731268
4425.026527
4408.871150
4412.764984
4408.075928
4421.146527
4414.877006
4423.290048
4458.552589
4422.390609
4405.810448
4426.198534
4398.500273
4429.851135
4401.079826
4412.694483
4457.851688
4403.158998
4420.795853
4401.600652
4407.639606
4429.081453
4434.545633
4422.415992
4423.320659
4420.858041
4420.236010
4455.412483
4389.498112
4481.564519
4382.758616
4451.355741
4395.505871
4439.846239
4452.233028
4429.976071
4384.132308
4414.768737
4411.447655
4476.846248
4418.396129
4441.575526
4399.085391
4401.887817
4461.623883
4416.349842
4423.258771
4448.637057
4417.910483
4452.912446
4443.925521
4473.238938
4420.908409
4428.185549
4436.311761
4448.968287
4422.363086
4448.912432
4404.014878
4457.718424
4386.281014
4473.717676
4367.727807
4524.642232
4407.242948
4436.484242
4386.787802
4438.122803
4399.846678
4456.413631
4444.828119
4444.099474
4421.989963
4397.248521
4428.459556
4435.586035
4428.796528
4417.690458
4442.897146
4440.403992
4473.730870
4410.552158
4341.461827
4489.649224
4465.082961
4433.242899
4428.772040
4434.506721
4422.850621
4440.934200
4410.490423
4436.135780
4426.489876
4476.558242
4366.001247
4474.571041
4435.989979
4419.373550
4403.911770
4459.601861
4422.581988
4520.737961
4422.104029
4460.578139
4460.238736
4436.298249
4422.657903
4426.688592
4433.806027
4427.481994
4438.884096
4404.770776
4457.749908
4478.465018
4435.849760
4335.570994
4421.164232
4430.692866
4429.633813
4443.557798
4431.782095
4435.013356
4429.686294
4470.744539
4348.255133
4445.862019
4461.544355
4406.065536
4428.267679
4429.993128
4437.715686
4388.966346
4356.165572
4462.312802
4368.371192
4402.686513
4463.945507
4449.212842
4455.882138
4426.074019
4421.051489
4432.449775
4461.594585
4387.766167
4455.746986
4460.071686
4363.792325
4447.905691
4422.509969
4422.477738
4405.145331
4432.732519
4409.462708
4441.703768
4436.346884
4402.490842
4473.048309
4436.839872
4417.252672
4454.642863
4423.432707
4421.467799
4426.174745
4427.611618
4452.924222
4409.175008
4416.135310
4418.087963
4436.993475
4466.660412
4444.488351
4421.503390
4440.731171
4388.581215
4410.709603
4404.441455
4441.848855
4473.213756
4376.148896
4424.702616
4444.248381
4430.555383
4430.406399
4445.234403
4447.372780
4443.585024
4429.277612
4450.710484
4432.710227
4414.979521
4433.452264
4408.389056
4444.519417
4422.149766
4428.120955
4450.143369
4433.010817
4439.334034
4458.814243
4423.408658
4444.508555
4395.330285
4451.166712
4416.363609
4458.186920
4397.584683
4419.182800
4426.370744
4448.547736
4497.930188
4407.172151
4415.703679
4415.149293
4432.515773
4429.685212
4431.665820
4436.086686
4417.475407
4431.985554
4447.796572
4414.422461
4450.589674
4426.449541
4438.189966
4423.588597
4512.893546
4429.710095
4390.616391
4443.461232
4421.853202
4459.528719
4425.403708
4423.130339
4436.351527
4409.505619
4432.483513
4421.951790
4431.469964
4398.772186
4446.242975
4418.488483
4402.941909
4391.037402
4454.320564
4421.305538
4439.419925
4422.932853
4408.170148
4430.483938
4415.151712
4420.004367
4438.348184
4422.689150
4436.993041
4419.216983
4470.972389
4433.681242
4434.824864
4425.120896
4429.759199
4432.988850
4418.845169
4421.580907
4416.797117
4448.964212
4408.334878
4446.526725
4426.176450
4453.716020
4425.120833
4433.094641
4440.594488
4465.828729
4431.291863
4441.421106
4427.404888
4425.128772
4427.047370
4421.754231
4411.030587
4422.415997
4439.025083
4444.525411
4422.994737
4389.088614
4390.291945
4421.889634
4509.397257
4410.509505
4437.357154
4445.967153
4423.060908
4453.768981
4464.101640
4406.806305
4447.988013
4436.637086
4453.323872
4427.440438
4448.350715
4420.749682
4440.795603
4418.624197
4449.045097
4456.167993
4395.878705
4411.576738
4429.167074
4435.036211
4434.731035
4428.618888
4448.849334
4415.750335
4416.764963
4453.658512
4408.024987
4452.860223
4465.278818
4370.491143
4418.846869
4408.121243
4427.865814
4413.737981
4467.498463
4404.464922
4452.473130
4407.317158
4395.091139
4449.535333
4430.976774
4432.279401
4415.226986
4417.514921
4415.592738
4434.282209
4436.816261
4432.485058
4444.830793
4444.746816
4426.223619
4423.376089
4428.836425
4435.280400
4418.685911
4417.739673
4438.137485
4417.780502
4433.761970
4413.386990
4463.783877
4415.751496
4441.203334
4431.477829
4416.576354
4428.403124
4452.561799
4377.822963
4369.018648
4455.311163
4423.308395
4445.546635
4429.210657
4417.169158
4456.122320
4435.572090
4413.096443
4438.028151
4414.774489
4452.109890
4407.838218
4415.584212
4426.622251
4434.528532
4436.824771
4423.771126
4444.074765
4403.297921
4449.005517
4442.547782
4454.086537
4403.508357
4454.272457
4366.670581
4471.254891
4425.120312
4422.573871
4418.785048
4444.219286
4406.946208
4446.697777
4405.896807
4441.984511
4433.432023
4386.575611
4435.061216
4449.550350
4440.660933
4424.205999
4428.437582
4438.047889
4422.364073
4434.857322
4449.489856
4422.212611
4425.046479
4428.743333
4425.492476
4427.460417
4443.461662
4439.356160
4440.438269
4409.657660
4437.372244
4383.752703
4439.063236
4433.689468
4450.505243
4433.415280
4415.305753
4433.053840
4491.814618
4459.723942
4423.951064
4456.969608
4447.348823
4354.528082
4453.272529
4432.337836
4430.228765
4426.983598
4435.721202
4432.827402
4416.630871
4420.968090
4410.764875
4433.561058
4435.060399
4439.006784
4415.255564
4429.333400
4417.491003
4406.624954
4466.259676
4460.678446
4450.709681
4469.242730
4331.270772
4436.568873
4451.223203
4427.369155
4425.776218
4432.414066
4384.344476
4430.930672
4460.401029
4403.802011
4459.484761
4441.339261
4414.001573
4454.741335
4435.717215
4423.256045
4433.001875
4414.754826
4438.270653
4431.138404
4443.867567
4423.683706
4417.681448
4410.571773
4442.644819
4456.327539
4432.221482
4404.444368
4410.381071
4433.655481
4416.535496
4440.569430
4488.442861
4429.453705
4420.319344
4415.285758
4429.826546
4445.713792
4432.506734
4467.091797
4409.746066
4425.164077
4426.759984
4421.589242
4451.122340
4446.063220
4424.707103
4432.842046
4423.979513
4424.860510
4450.848485
4400.694864
4443.322959
4423.617893
4439.669302
4437.314297
4408.087954
4404.755760
4448.053756
4442.678005
4409.128640
4439.016112
4447.678613
4381.060358
4375.154805
4436.031207
4446.813860
4555.915594
4492.569952
4444.356695
4428.182861
4364.943718
4384.354373
4476.147812
4475.197066
4429.897694
4478.499268
4412.385365
4430.482567
4420.595449
4444.541498
4419.243760
4403.688606
4456.154540
4438.299571
4421.607429
4431.939143
4425.403695
4416.778112
4431.714405
4410.382712
4412.665988
4442.241567
4437.416818
4473.865259
4442.728142
4438.290786
4393.798852
4433.993968
4415.388754
4417.170537
4433.282949
4427.608011
4423.178379
4402.391974
4456.709588
4419.150305
4404.817690
4451.502127
4403.848765
4424.432719
4442.475340
4428.794540
4448.255881
4434.593237
4436.808659
4415.397936
4421.978585
4425.023659
4441.723052
4439.628076
4431.754922
4434.391806
4437.386415
4409.685548
4431.455004
4380.963537
4469.578277
4440.758083
4426.051653
4436.888972
4407.481608
4435.322217
4444.608338
4439.338197
4399.732777
4444.306261
4437.435589
4411.101634
4520.333054
4411.381868
4432.911685
4436.485366
4451.952737
4425.311450
4428.188505
4418.058875
4419.751261
4444.192408
4436.138916
4431.423257
4417.729964
4436.304310
4429.516072
4438.342814
4439.678372
4446.122013
4398.860861
4415.778604
4419.361693
4482.011694
4377.516002
4546.019504
4426.378475
4433.431733
4430.008828
4458.233484
4442.595174
4422.360933
4492.162048
4447.583430
4414.549911
4457.023697
4480.477919
4402.909643
4453.239205
4428.206345
4435.480463
4442.425912
4455.491762
4419.625030
4416.669810
4426.696815
4438.175801
4430.224587
4398.150670
4417.756354
4431.130744
4422.710504
4377.812712
4433.509107
4488.471766
4392.857108
4424.214145
4432.578386
4426.103996
4429.318781
4421.355310
4431.443326
4453.895798
4425.026462
4439.953693
4458.043901
4425.287276
4336.265767
4436.398004
4440.781589
4467.317443
4419.228644
4426.231573
4411.773634
4433.942981
4409.263250
4442.863864
4436.696131
4437.540699
4421.392634
4448.875151
4419.541013
4404.536523
4452.897328
4443.255345
4424.859700
4452.006784
4397.890162
4385.147731
4483.813184
4429.368449
4440.167775
4409.880074
4438.567884
4456.276555
4427.765552
4429.787217
4428.103367
4421.200982
4369.329512
4365.394514
4445.211728
4429.832909
4408.078484
4448.375416
4434.103589
4465.321803
4427.240511
4414.908369
4424.217141
4433.979983
4429.153456
4403.208476
4431.235006
4407.935700
4431.844889
4442.954041
4431.818827
4445.645766
4449.006204
4382.589408
4424.627760
4424.662739
4433.684486
4412.765731
4359.757102
4443.904570
4448.042545
4437.368211
4464.111910
4410.399888
4430.096684
4432.531633
4436.623563
4454.289637
4453.710645
4436.093143
4436.752320
4417.130492
4414.407427
4447.644423
4419.789459
4421.662409
4429.184551
4428.846213
4429.202673
4429.487173
4429.568389
4429.875190
4429.973644
4430.465282
4430.715684
4431.176243
4431.186273
4431.108372
4430.897182
4430.112053
4424.205762
4428.454702
4428.514028
4429.226961
4429.710986
4430.081587
4430.378904
4430.369221
4430.248607
4429.569655
4429.446672
4429.304774
4429.917092
4430.440021
4430.005796
4426.053746
4428.202680
4428.189381
4428.358608
4428.929276
4428.568092
4429.217718
4429.152508
4429.990892
4430.754010
4431.460718
4431.322760
4430.893908
4429.988750
4429.094924
4426.912413
4428.318087
4428.689947
4428.797288
4429.588390
4429.650435
4430.190448
4429.838642
4429.947377
4428.709118
4428.516920
4428.199253
4428.606111
4428.884412
4430.240780
4427.797741
4428.394853
4428.533336
4428.319252
4428.677042
4428.247761
4428.852724
4428.589822
4429.679834
4429.992231
4431.399519
4430.408625
4430.873805
4428.309437
4427.600917
4427.975120
4428.536058
4428.977245
4428.556610
4429.681488
4429.225233
4430.081545
4429.414611
4429.592954
4428.326950
4427.985103
4427.606069
4428.318742
4428.029076
4430.430837
4428.050214
4428.564143
4428.664993
4428.319492
4428.518524
4428.126852
4428.497857
4428.367369
4429.263988
4429.785672
4430.904577
4430.472499
4430.013558
4428.457179
4428.742449
4428.190865
4428.811412
4428.771309
4428.762749
4429.338091
4429.212859
4429.760481
4429.214330
4429.338918
4427.953198
4428.057781
4427.047335
4428.811313
4428.209215
4428.564114
4428.007205
4428.615399
4428.668556
4428.121633
4428.516236
4427.833086
4428.373257
4428.006227
4429.095914
4429.558265
4430.736610
4430.805800
4430.581922
4428.474072
4430.797019
4428.269354
4428.785789
4428.692305
4428.789901
4429.036269
4429.214704
4429.313714
4429.232436
4428.767305
4428.053487
4427.664293
4427.155700
4429.281953
4429.129676
4429.888628
4427.850180
4428.766727
4428.302499
4428.237441
4428.084100
4427.851042
4427.871399
4427.794545
4428.721384
4429.287792
4430.421114
4430.867289
4429.930879
4430.066829
4430.252140
4427.919746
4428.808580
4428.443761
4428.604434
4428.886106
4428.838955
4429.069532
4428.883435
4428.518273
4427.684158
4427.246083
4426.835409
4428.489132
4429.387890
4429.652755
4427.909729
4428.589493
4428.223979
4428.213317
4427.670982
4427.811956
4427.407792
4427.705837
4428.029650
4429.142468
4429.688285
4430.298655
4429.640272
4428.783285
4432.007421
4410.691755
4389.980276
4411.704470
4422.156616
4430.983212
4448.402488
4431.915414
4440.710761
4401.410066
4469.187476
4411.017866
4397.279157
4412.849282
4447.460529
4429.129851
4420.293265
4427.825294
4428.625691
4428.349769
4428.262831
4428.731549
4428.516222
4428.789933
4428.523020
4428.201373
4426.907400
4426.701854
4425.988172
4427.138442
4427.434103
4428.848873
4441.215162
4399.035205
4441.484942
4434.991915
4414.360235
4440.230213
4434.967288
4331.218124
4426.835409
4432.237490
4438.923318
4448.122018
4401.337881
4465.652094
4396.127065
4402.455146
4427.332554
4428.314057
4428.162700
4427.702354
4427.813797
4426.935633
4427.619660
4426.657022
4427.801593
4428.188221
4429.300079
4428.821986
4428.610509
4427.112755
4428.841592
4431.447043
4442.581695
4412.997399
4442.864040
4406.327402
4441.390739
4416.124086
4398.905015
4409.335016
4456.217191
4440.368868
4447.263037
4411.862219
4423.554287
4426.053341
4448.584202
4427.505198
4428.270674
4428.314777
4427.802804
4428.463447
4428.105599
4428.369337
4428.029621
4427.875046
4426.010432
4426.272676
4424.834796
4426.402132
4424.494475
4427.276671
4428.045365
4401.542256
4434.230587
4391.455896
4412.410723
4445.481201
4434.032365
4463.507980
4445.079381
4436.254646
4426.645604
4435.658526
4381.500508
4385.302180
4438.328039
4445.595412
4426.994266
4428.232724
4427.870466
4427.383834
4427.542497
4426.586528
4427.227014
4426.391855
4427.103345
4428.048435
4428.318393
4427.949004
4427.442648
4424.539299
4423.883566
4432.346738
4444.752726
4430.244462
4466.673295
4451.463895
4432.176688
4440.905878
4422.578351
4423.356918
4433.937405
4448.690086
4440.170134
4409.489714
4427.141236
4431.483824
4417.847262
4427.000725
4428.353291
4427.652648
4428.045045
4427.691151
4428.126037
4427.936403
4427.854362
4427.559161
4425.461785
4425.772307
4424.483160
4424.908261
4424.414248
4423.732114
4414.681001
4386.300068
4439.811975
4441.873286
4489.156410
4383.803503
4441.119082
4428.825720
4449.716239
4409.280275
4376.803605
4427.610348
4417.231253
4448.901774
4440.302411
4420.960364
4426.996824
4428.017992
4427.828985
4427.090836
4427.335951
4426.765529
4426.730948
4426.592371
4426.445205
4428.154519
4427.373371
4428.089171
4426.142885
4425.173028
4425.451465
4448.495651
4437.503770
4440.549184
4382.051242
4348.816340
4436.240233
4425.040667
4428.540422
4446.491181
4422.845048
4407.235922
4471.247539
4443.125613
4417.210578
4482.173961
4393.342231
4426.734451
4428.129498
4427.602622
4427.719352
4427.839700
4427.623930
4428.033880
4427.521149
4427.335951
4425.260259
4425.823313
4424.157845
4425.440491
4425.943863
4425.069802
4439.720802
4418.780300
4445.598497
4399.773847
4409.170706
4472.720373
4408.157095
4421.580313
4430.860157
4410.867347
4448.176473
4398.392491
4423.557499
4446.940865
4441.321100
4449.382035
4426.680284
4427.889770
4427.635890
4427.070326
4427.224974
4426.573842
4426.966411
4425.767250
4426.953405
4427.179585
4427.871393
4427.896043
4427.257242
4425.701916
4427.174250
4421.919803
4446.102890
4383.397664
4431.594981
4437.606780
4433.214160
4429.169438
4423.558180
4407.676144
4468.220675
4407.711565
4378.627710
4445.759190
4477.582734
4432.203052
4395.900232
4426.606062
4427.834515
4427.832700
4427.090259
4428.101419
4427.149948
4427.703882
4427.535989
4426.666630
4425.301667
4425.759535
4423.905566
4426.281968
4425.137704
4428.252277
4435.787747
4425.403593
4432.152907
4452.733119
4379.098130
4416.058844
4436.612517
4433.702315
4402.837369
4435.791402
4406.393981
4428.359838
4361.322399
4474.079135
4451.912096
4433.077619
4426.541851
4427.932824
4427.285089
4427.348240
4426.765901
4426.397563
4426.713958
4425.216375
4426.469537
4426.981075
4427.408434
4427.894313
4426.278903
4424.844123
4424.617548
4431.669768
4428.862839
4429.418628
4433.677831
4450.136317
4426.357934
4458.302920
4482.168630
4395.605097
4419.523556
4449.322255
4448.478978
4436.712568
4408.582429
4395.097106
4379.110093
4426.670966
4427.760935
4427.625530
4426.976480
4427.481895
4426.973097
4427.124287
4427.158944
4426.885578
4424.843932
4426.064947
4423.635081
4425.514206
4424.629882
4423.989334
4451.420596
4436.646560
4433.548019
4417.603554
4409.243713
4423.691842
4442.671337
4402.264156
4465.733353
4429.609782
4425.022364
4384.494235
4419.028882
4407.144271
4420.014199
4454.852840
4426.453160
4427.542498
4427.717022
4426.257252
4427.411907
4425.487091
4427.037562
4425.398722
4426.212815
4427.541033
4426.976934
4427.571069
4425.578763
4424.697447
4424.739916
4432.644756
4420.687986
4438.508737
4405.773365
4407.333100
4450.228574
4423.245141
4426.785846
4402.539810
4450.769650
4431.861700
4460.455280
4430.778548
4416.239934
4509.748245
4457.327568
4426.636769
4427.982027
4427.032965
4427.640787
4426.796842
4427.650704
4427.242669
4427.200212
4427.493761
4424.346246
4425.742674
4423.572101
4425.590174
4424.074419
4426.671191
4415.974308
4442.113190
4411.536506
4444.912038
4437.812308
4420.985628
4453.996548
4449.171788
4391.903155
4432.088747
4453.139784
4431.571702
4415.813728
4425.491408
4417.689711
4449.694141
4426.251321
4427.766158
4427.403709
4426.676420
4427.187464
4426.457636
4426.501439
4425.966776
4425.529517
4426.857166
4426.856821
4426.539998
4425.584112
4424.526207
4423.345640
4435.090548
4423.251126
4406.212269
4424.538027
4445.780698
4446.482992
4439.454543
4408.513314
4441.917467
4440.242506
4405.396931
4415.278834
4440.725989
4436.523321
4412.049567
4411.230016
4426.525775
4427.721284
4427.503842
4427.027337
4427.814430
4426.859970
4427.653341
4426.861829
4427.202736
4425.290442
4425.151256
4424.510973
4424.616125
4425.138233
4425.340630
4423.763837
4414.222823
4440.671347
4410.029747
4365.680225
4429.622896
4619.198577
4451.760626
4426.741720
4450.265714
4450.638912
4421.853605
4450.588528
4403.310085
4451.154965
4429.337299
4426.516296
4427.976588
4427.110346
4427.741644
4426.394211
4427.451667
4426.402486
4426.494699
4426.038515
4426.803555
4427.361512
4426.808708
4425.707677
4423.981973
4426.713370
4419.515032
4442.001147
4440.591492
4476.375159
4390.728832
4432.307968
4462.429553
4486.719558
4467.203754
4444.960155
4463.382453
4431.130793
4428.840350
4416.406601
4380.506655
4420.752017
4426.371130
4427.741978
4427.408798
4426.648297
4427.671386
4426.443647
4427.283633
4426.704164
4426.274161
4424.856027
4425.086900
4422.780995
4425.982244
4424.310507
4422.756668
4421.840591
4423.963633
4448.548470
4422.842303
4381.874349
4405.056684
4456.446459
4410.334551
4475.318184
4445.407739
4404.491995
4419.249882
4470.223465
4448.330083
4483.046590
4433.059880
4426.405953
4427.253524
4427.879310
4425.920696
4427.233598
4424.882054
4426.760507
4423.805159
4425.109393
4425.591384
4426.080102
4427.421133
4423.774116
4422.979470
4426.409706
4435.541797
4417.508245
4435.204893
4464.341317
4385.335796
4439.057474
4441.194999
4445.069245
4446.282829
4440.901662
4439.408993
4437.211802
4416.121527
4429.610997
4361.766989
4410.768794
4426.550935
4427.764851
4426.950630
4427.101309
4426.265294
4426.796425
4426.708142
4426.856526
4427.415339
4425.914668
4426.916480
4423.299587
4426.399449
4422.706996
4423.735137
4417.433297
4450.821234
4403.744380
4373.732701
4397.279930
4456.357618
4743.106698
4431.181804
4477.883416
4480.071565
4425.855778
4395.963503
4394.038753
4430.541001
4347.761892
4418.077165
4426.479483
4427.365855
4427.618600
4425.977537
4427.776827
4426.138481
4427.528530
4426.127263
4427.020593
4426.624825
4427.868169
4426.030031
4423.631516
4423.613711
4423.588484
4437.468750
4448.432773
4451.626627
4427.212009
4447.718353
4422.359059
4416.002574
4457.630073
4377.559685
4433.284158
4435.619513
4404.505180
4437.073625
4399.979937
4520.150402
4423.575037
4426.363553
4427.248682
4428.015616
4426.603489
4427.931595
4426.258533
4427.551452
4426.073176
4427.776033
4424.397006
4424.527785
4423.183906
4424.854806
4422.673398
4423.179726
4431.229563
4412.878911
4426.033949
4413.738672
4468.874805
4468.641934
4379.981721
4444.592742
4468.385239
4430.501183
4448.935988
4456.414469
4439.755575
4423.380223
4340.558202
4428.930194
4426.746641
4428.163062
4427.019629
4427.833240
4426.393452
4427.085357
4425.843202
4425.712502
4424.777882
4424.285099
4425.242542
4422.889129
4423.191791
4422.127123
4424.864480
4431.823302
4426.910914
4414.036333
4419.167548
4445.193228
4403.448626
4504.738204
4484.349897
4459.833977
4441.204310
4428.752888
4455.881875
4441.065671
4384.024953
4384.944867
4412.184865