# vtk DataFile Version 2.0
mfree iwf
ASCII

DATASET UNSTRUCTURED_GRID
POINTS 11226 float
0.000000 0.000445 0.000000
0.000000 0.000450 0.000000
0.000000 0.000455 0.000000
0.000000 0.000460 0.000000
0.000000 0.000465 0.000000
0.000000 0.000470 0.000000
0.000000 0.000475 0.000000
0.000000 0.000480 0.000000
0.000000 0.000485 0.000000
0.000000 0.000490 0.000000
-0.000000 0.000496 0.000000
0.000002 0.000500 0.000000
0.000952 0.000961 0.000000
0.000961 0.000961 0.000000
0.001007 0.000952 0.000000
0.001012 0.000950 0.000000
0.001012 0.000950 0.000000
0.001019 0.000948 0.000000
0.001026 0.000945 0.000000
0.001022 0.000947 0.000000
0.001036 0.000943 0.000000
0.001061 0.000934 0.000000
0.001067 0.000930 0.000000
0.001070 0.000927 0.000000
0.001074 0.000924 0.000000
0.001078 0.000921 0.000000
0.001082 0.000918 0.000000
0.001085 0.000914 0.000000
0.001088 0.000912 0.000000
0.001093 0.000907 0.000000
0.001098 0.000904 0.000000
0.001119 0.000893 0.000000
0.000005 0.000445 0.000000
0.000005 0.000450 0.000000
0.000005 0.000455 0.000000
0.000005 0.000460 0.000000
0.000005 0.000465 0.000000
0.000005 0.000470 0.000000
0.000005 0.000475 0.000000
0.000005 0.000480 0.000000
0.000005 0.000485 0.000000
0.000006 0.000490 0.000000
0.000003 0.000496 0.000000
0.000006 0.000499 0.000000
0.001002 0.000952 0.000000
0.001008 0.000943 0.000000
0.001042 0.000939 0.000000
0.001048 0.000937 0.000000
0.001053 0.000935 0.000000
0.001056 0.000933 0.000000
0.001058 0.000931 0.000000
0.001062 0.000928 0.000000
0.001064 0.000925 0.000000
0.001070 0.000921 0.000000
0.001076 0.000917 0.000000
0.001081 0.000913 0.000000
0.001084 0.000908 0.000000
0.001092 0.000903 0.000000
0.001095 0.000900 0.000000
0.001100 0.000897 0.000000
0.001110 0.000894 0.000000
0.001112 0.000893 0.000000
0.001107 0.000896 0.000000
0.001116 0.000891 0.000000
0.000010 0.000445 0.000000
0.000010 0.000450 0.000000
0.000010 0.000455 0.000000
0.000010 0.000460 0.000000
0.000010 0.000465 0.000000
0.000010 0.000469 0.000000
0.000010 0.000475 0.000000
0.000011 0.000480 0.000000
0.000009 0.000486 0.000000
0.000012 0.000489 0.000000
0.000009 0.000497 0.000000
0.000011 0.000498 0.000000
0.001002 0.000948 0.000000
0.001011 0.000942 0.000000
0.001027 0.000941 0.000000
0.001035 0.000939 0.000000
0.001039 0.000938 0.000000
0.001044 0.000937 0.000000
0.001035 0.000933 0.000000
0.001044 0.000930 0.000000
0.001049 0.000929 0.000000
0.001055 0.000926 0.000000
0.001065 0.000921 0.000000
0.001069 0.000918 0.000000
0.001069 0.000912 0.000000
0.001074 0.000909 0.000000
0.001079 0.000909 0.000000
0.001089 0.000903 0.000000
0.001102 0.000895 0.000000
0.001105 0.000894 0.000000
0.001110 0.000888 0.000000
0.001112 0.000883 0.000000
0.000015 0.000445 0.000000
0.000016 0.000450 0.000000
0.000014 0.000456 0.000000
0.000017 0.000460 0.000000
0.000014 0.000469 0.000000
0.000016 0.000464 0.000000
0.000014 0.000476 0.000000
0.000016 0.000480 0.000000
0.000014 0.000485 0.000000
0.000016 0.000489 0.000000
0.000014 0.000495 0.000000
0.000016 0.000497 0.000000
0.000025 0.000500 0.000000
0.001015 0.000943 0.000000
0.001029 0.000939 0.000000
0.001025 0.000935 0.000000
0.001040 0.000931 0.000000
0.001049 0.000934 0.000000
0.001051 0.000925 0.000000
0.001058 0.000922 0.000000
0.001053 0.000918 0.000000
0.001061 0.000918 0.000000
0.001071 0.000905 0.000000
0.001074 0.000914 0.000000
0.001080 0.000902 0.000000
0.001085 0.000903 0.000000
0.001085 0.000898 0.000000
0.001090 0.000897 0.000000
0.001095 0.000893 0.000000
0.001099 0.000891 0.000000
0.001103 0.000887 0.000000
0.001111 0.000880 0.000000
0.000019 0.000445 0.000000
0.000021 0.000450 0.000000
0.000018 0.000455 0.000000
0.000022 0.000459 0.000000
0.000019 0.000469 0.000000
0.000024 0.000467 0.000000
0.000018 0.000475 0.000000
0.000022 0.000478 0.000000
0.000019 0.000486 0.000000
0.000021 0.000490 0.000000
0.000021 0.000497 0.000000
0.000022 0.000499 0.000000
0.000039 0.000500 0.000000
0.001012 0.000931 0.000000
0.001018 0.000937 0.000000
0.001026 0.000930 0.000000
0.001032 0.000936 0.000000
0.001042 0.000926 0.000000
0.001042 0.000921 0.000000
0.001057 0.000917 0.000000
0.001046 0.000920 0.000000
0.001059 0.000911 0.000000
0.001061 0.000903 0.000000
0.001065 0.000900 0.000000
0.001071 0.000899 0.000000
0.001080 0.000896 0.000000
0.001086 0.000888 0.000000
0.001092 0.000889 0.000000
0.001096 0.000886 0.000000
0.001104 0.000881 0.000000
0.001107 0.000885 0.000000
0.001108 0.000876 0.000000
0.000024 0.000445 0.000000
0.000026 0.000450 0.000000
0.000024 0.000455 0.000000
0.000026 0.000461 0.000000
0.000021 0.000465 0.000000
0.000025 0.000472 0.000000
0.000023 0.000477 0.000000
0.000027 0.000481 0.000000
0.000023 0.000485 0.000000
0.000026 0.000488 0.000000
0.000026 0.000493 0.000000
0.000027 0.000500 0.000000
0.000982 0.000958 0.000000
0.001018 0.000940 0.000000
0.001022 0.000940 0.000000
0.001037 0.000928 0.000000
0.001030 0.000924 0.000000
0.001050 0.000924 0.000000
0.001049 0.000915 0.000000
0.001039 0.000920 0.000000
0.001048 0.000911 0.000000
0.001064 0.000914 0.000000
0.001064 0.000910 0.000000
0.001066 0.000908 0.000000
0.001076 0.000904 0.000000
0.001077 0.000899 0.000000
0.001089 0.000892 0.000000
0.001084 0.000893 0.000000
0.001099 0.000883 0.000000
0.001091 0.000883 0.000000
0.001101 0.000878 0.000000
0.001104 0.000872 0.000000
0.000030 0.000445 0.000000
0.000031 0.000450 0.000000
0.000029 0.000455 0.000000
0.000031 0.000460 0.000000
0.000031 0.000464 0.000000
0.000028 0.000469 0.000000
0.000032 0.000472 0.000000
0.000030 0.000477 0.000000
0.000030 0.000486 0.000000
0.000031 0.000492 0.000000
0.000033 0.000497 0.000000
0.000030 0.000499 0.000000
0.000049 0.000500 0.000000
0.001007 0.000937 0.000000
0.001021 0.000927 0.000000
0.001031 0.000929 0.000000
0.001027 0.000926 0.000000
0.001035 0.000924 0.000000
0.001042 0.000912 0.000000
0.001055 0.000905 0.000000
0.001054 0.000913 0.000000
0.001058 0.000906 0.000000
0.001067 0.000903 0.000000
0.001072 0.000891 0.000000
0.001074 0.000895 0.000000
0.001077 0.000891 0.000000
0.001082 0.000884 0.000000
0.001081 0.000889 0.000000
0.001089 0.000879 0.000000
0.001095 0.000879 0.000000
0.001099 0.000875 0.000000
0.001102 0.000869 0.000000
0.000035 0.000445 0.000000
0.000035 0.000450 0.000000
0.000034 0.000456 0.000000
0.000038 0.000454 0.000000
0.000034 0.000467 0.000000
0.000037 0.000472 0.000000
0.000032 0.000479 0.000000
0.000041 0.000478 0.000000
0.000035 0.000484 0.000000
0.000034 0.000488 0.000000
0.000037 0.000491 0.000000
0.000036 0.000498 0.000000
0.000939 0.000959 0.000000
0.000977 0.000959 0.000000
0.001016 0.000931 0.000000
0.001022 0.000922 0.000000
0.001036 0.000916 0.000000
0.001028 0.000913 0.000000
0.001044 0.000916 0.000000
0.001043 0.000908 0.000000
0.001050 0.000908 0.000000
0.001047 0.000900 0.000000
0.001054 0.000893 0.000000
0.001065 0.000890 0.000000
0.001068 0.000894 0.000000
0.001073 0.000887 0.000000
0.001086 0.000882 0.000000
0.001079 0.000871 0.000000
0.001091 0.000874 0.000000
0.001093 0.000873 0.000000
0.001097 0.000870 0.000000
0.001098 0.000865 0.000000
0.000040 0.000445 0.000000
0.000041 0.000450 0.000000
0.000036 0.000461 0.000000
0.000040 0.000458 0.000000
0.000042 0.000463 0.000000
0.000039 0.000468 0.000000
0.000041 0.000473 0.000000
0.000037 0.000478 0.000000
0.000041 0.000487 0.000000
0.000042 0.000491 0.000000
0.000041 0.000497 0.000000
0.000044 0.000498 0.000000
0.000798 0.000893 0.000000
0.001003 0.000944 0.000000
0.001007 0.000934 0.000000
0.001018 0.000918 0.000000
0.001032 0.000919 0.000000
0.001037 0.000911 0.000000
0.001033 0.000913 0.000000
0.001049 0.000904 0.000000
0.001056 0.000899 0.000000
0.001059 0.000897 0.000000
0.001052 0.000899 0.000000
0.001059 0.000887 0.000000
0.001068 0.000885 0.000000
0.001074 0.000880 0.000000
0.001077 0.000886 0.000000
0.001078 0.000880 0.000000
0.001083 0.000878 0.000000
0.001087 0.000870 0.000000
0.001093 0.000867 0.000000
0.001095 0.000861 0.000000
0.000044 0.000445 0.000000
0.000046 0.000450 0.000000
0.000044 0.000455 0.000000
0.000046 0.000460 0.000000
0.000044 0.000467 0.000000
0.000046 0.000473 0.000000
0.000046 0.000479 0.000000
0.000040 0.000483 0.000000
0.000051 0.000485 0.000000
0.000045 0.000484 0.000000
0.000048 0.000493 0.000000
0.000050 0.000498 0.000000
0.000803 0.000898 0.000000
0.000998 0.000952 0.000000
0.001021 0.000932 0.000000
0.001027 0.000919 0.000000
0.001023 0.000916 0.000000
0.001037 0.000906 0.000000
0.001039 0.000901 0.000000
0.001043 0.000904 0.000000
0.001048 0.000893 0.000000
0.001058 0.000892 0.000000
0.001064 0.000896 0.000000
0.001068 0.000881 0.000000
0.001062 0.000882 0.000000
0.001070 0.000877 0.000000
0.001078 0.000876 0.000000
0.001083 0.000873 0.000000
0.001082 0.000868 0.000000
0.001087 0.000866 0.000000
0.001090 0.000863 0.000000
0.001092 0.000857 0.000000
0.000049 0.000445 0.000000
0.000052 0.000450 0.000000
0.000049 0.000454 0.000000
0.000054 0.000455 0.000000
0.000048 0.000464 0.000000
0.000050 0.000472 0.000000
0.000052 0.000467 0.000000
0.000051 0.000477 0.000000
0.000047 0.000488 0.000000
0.000052 0.000491 0.000000
0.000057 0.000492 0.000000
0.000053 0.000498 0.000000
0.000883 0.000946 0.000000
0.000990 0.000949 0.000000
0.001002 0.000940 0.000000
0.001017 0.000921 0.000000
0.001025 0.000910 0.000000
0.001031 0.000908 0.000000
0.001027 0.000904 0.000000
0.001034 0.000903 0.000000
0.001042 0.000893 0.000000
0.001044 0.000897 0.000000
0.001046 0.000890 0.000000
0.001056 0.000886 0.000000
0.001061 0.000877 0.000000
0.001064 0.000887 0.000000
0.001070 0.000871 0.000000
0.001074 0.000867 0.000000
0.001074 0.000873 0.000000
0.001083 0.000862 0.000000
0.001087 0.000859 0.000000
0.001089 0.000854 0.000000
0.000054 0.000445 0.000000
0.000057 0.000450 0.000000
0.000053 0.000459 0.000000
0.000052 0.000463 0.000000
0.000060 0.000467 0.000000
0.000054 0.000473 0.000000
0.000057 0.000477 0.000000
0.000057 0.000481 0.000000
0.000052 0.000482 0.000000
0.000056 0.000487 0.000000
0.000056 0.000497 0.000000
0.000059 0.000496 0.000000
0.000906 0.000952 0.000000
0.000997 0.000954 0.000000
0.000994 0.000947 0.000000
[...]
POINT_DATA 11226
SCALARS density float 1
LOOKUP_TABLE default
4426.526696
4431.437808
4429.512571
4429.859052
4432.684981
4424.380276
4436.224433
4428.356667
4429.484941
4419.556737
4429.559659
4403.938116
4427.899477
4421.418198
4416.475160
4438.389979
4439.692586
4435.929573
4446.852915
4447.855581
4426.368691
4434.133985
4400.915053
4435.455177
4432.362097
4422.210067
4453.382252
4427.501706
4414.559932
4447.356609
4422.964660
4401.273274
4430.743293
4429.167556
4426.363575
4421.567054
4432.725546
4420.548450
4428.570092
4419.567066
4424.670241
4432.171204
4450.789515
4408.469278
4411.936045
4419.859655
4415.793428
4407.988047
4423.713888
4418.624417
4441.522527
4455.633692
4444.487900
4423.228739
4391.421210
4387.414385
4448.610818
4402.874645
4435.006678
4460.787432
4423.878493
4431.410740
4406.297298
4401.708278
4420.737691
4423.246454
4435.087123
4425.430020
4432.842059
4425.174103
4453.002335
4394.181390
4467.382138
4377.804589
4451.534222
4399.456739
4455.613789
4460.117057
4433.292469
4403.796054
4422.542246
4409.534052
4446.815771
4433.695815
4416.123252
4401.221225
4420.849094
4434.475642
4388.603301
4452.276028
4432.111197
4402.268283
4422.976110
4424.535338
4451.998235
4417.148587
4423.234680
4435.480818
4438.072619
4417.440966
4409.595469
4430.039330
4458.344747
4383.243517
4476.386613
4387.669302
4509.941243
4403.640170
4436.059427
4379.204231
4418.161039
4443.799684
4477.405717
4455.594390
4458.029517
4394.960230
4407.146984
4421.728828
4405.446586
4474.346339
4410.706457
4452.416335
4440.929057
4458.778252
4436.918214
4363.312649
4502.880559
4445.483400
4437.234231
4430.173127
4435.467974
4441.233826
4431.333486
4454.799462
4428.679992
4450.185998
4470.713850
4371.265440
4466.906453
4435.674525
4416.122197
4434.585224
4471.619775
4416.974886
4475.433936
4389.659086
4459.194837
4455.661619
4432.162005
4376.902245
4393.527883
4432.509155
4413.770742
4410.189226
4410.138937
4460.221289
4454.073318
4372.248955
4395.218902
4419.996183
4433.640610
4437.356946
4446.749159
4404.449328
4437.082512
4404.560402
4469.501001
4366.499724
4429.987866
4473.411409
4412.437017
4424.294708
4433.188070
4426.180712
4389.824006
4403.120257
4435.442189
4436.564270
4418.963904
4408.439669
4460.205439
4442.802962
4458.274959
4452.824655
4450.033434
4457.430070
4393.242169
4427.894666
4421.633990
4424.568135
4503.589459
4408.978294
4425.097088
4429.785171
4413.258627
4450.136395
4445.795405
4428.436666
4402.175529
4447.407592
4442.389827
4410.946857
4456.633194
4419.233199
4424.891012
4440.946879
4459.740757
4400.854750
4442.022101
4480.343515
4403.996488
4433.170299
4442.886316
4461.437476
4452.302835
4447.933556
4445.078968
4405.899029
4409.349712
4460.463365
4438.469222
4383.930515
4406.792620
4441.688522
4429.957092
4425.118282
4439.944593
4427.435618
4431.522547
4423.252881
4445.293282
4424.649115
4404.409145
4428.491993
4420.312532
4444.994799
4416.520818
4423.748474
4395.434791
4399.528484
4438.662510
4438.130163
4431.666428
4423.033069
4440.296461
4482.163003
4414.513812
4430.148674
4399.175193
4441.692809
4446.938217
4437.980735
4445.122445
4459.283625
4415.122143
4417.110450
4433.773671
4433.737722
4401.619117
4447.827733
4445.919915
4429.903132
4440.750150
4424.351220
4446.233120
4426.863469
4431.125398
4424.162852
4423.287784
4460.025989
4408.194263
4433.090677
4404.550371
4440.126179
4450.254282
4398.794550
4445.632145
4446.439035
4421.607092
4432.028744
4422.393712
4411.675221
4415.053942
4439.988220
4403.505364
4403.288100
4413.178038
4435.601834
4434.649896
4424.222348
4426.673947
4410.636325
4408.634597
4434.897719
4426.724723
4435.016542
4457.429712
4428.873069
4474.103532
4427.247992
4434.287646
4438.852161
4391.427438
4441.179567
4428.642184
4421.661520
4400.374261
4446.753596
4441.519181
4416.815273
4439.971703
4447.325965
4399.877146
4440.743845
4451.563639
4443.666166
4429.990013
4451.968393
4434.822693
4425.779112
4422.761526
4425.992558
4438.498876
4431.253582
4429.229247
4447.793934
4427.516385
4396.138853
4388.701047
4429.688960
4532.997531
4403.905098
4435.437258
4430.915796
4390.625390
4445.788126
4427.254430
4392.174815
4461.938762
4437.092901
4417.420732
4414.972709
4447.881194
4439.810247
4434.618462
4449.801584
4445.803150
4443.096633
4382.955212
4407.018055
4421.450267
4430.354553
4444.002857
4418.010521
4439.796410
4421.318853
4429.270457
4460.363477
4424.763864
4458.547946
4452.507332
4361.966802
4404.809898
4415.030438
4422.706240
4433.102082
4419.844209
4419.909647
4446.987307
4439.003723
4400.030060
4468.730513
4425.156303
4390.134667
4443.799142
4413.646531
4424.275534
4437.918407
4457.487071
4422.366268
4445.343080
4447.024994
4429.466583
4424.093197
4430.718587
4434.677409
4398.078799
4405.481046
4439.820344
4427.571869
4415.977156
4425.543174
4449.768454
4386.016573
4449.850961
4440.428237
4420.816908
4435.330071
4421.559374
4381.679417
4397.907939
4406.264110
4436.832248
4420.957876
4427.872776
4441.522610
4429.938200
4439.558858
4397.894836
4438.474598
4401.661752
4443.812660
4388.511127
4423.574345
4437.667785
4430.701734
4438.522635
4415.637413
4438.858981
4429.216175
4441.304384
4430.238610
4440.705572
4390.335532
4453.073414
4410.546361
4412.029757
4436.306223
4411.828220
4434.905948
4406.013493
4398.889693
4441.656175
4393.108439
4446.197211
4415.719034
4436.414071
4423.132866
4465.345338
4440.167852
4418.806210
4453.535382
4428.266633
4443.460611
4452.092644
4432.278301
4422.834090
4432.108605
4407.048732
4453.147171
4433.834853
4430.210006
4438.179404
4441.139139
4432.957969
4431.708612
4378.991993
4419.301278
4450.916668
4455.658925
4425.046135
4437.602854
4436.302885
4460.492388
4450.728005
4453.073759
4454.161780
4454.605032
4388.871259
4426.419674
4409.363616
4432.661026
4470.313323
4412.818455
4442.088402
4400.197632
4428.772575
4396.627282
4435.528574
4427.768518
4440.554156
4410.746226
4410.713727
4443.137827
4427.046057
4395.508208
4441.859320
4450.810099
4458.812077
4383.717375
4395.802528
4445.766441
4425.425460
4425.019923
4429.817928
4440.333935
4440.392808
4421.307444
4398.174481
4426.758723
4390.244590
4414.972968
4449.968611
4430.086925
4393.641612
4424.604807
4432.981115
4442.714074
4441.447368
4431.006568
4438.611254
4418.684459
4420.778303
4437.834702
4423.863907
4438.415605
4383.953578
4437.893319
4417.811692
4420.367214
4431.898722
4451.701502
4421.341987
4429.827091
4430.904297
4430.054333
4427.191149
4435.432149
4473.775767
4436.353256
4419.465979
4444.996649
4422.346311
4446.035647
4444.087197
4439.610135
4421.433467
4420.753394
4400.318559
4435.741491
4409.821758
4432.626257
4426.267157
4441.765982
4444.686686
4440.085242
4427.502277
4416.650159
4445.158364
4447.532238
4447.258904
4440.036378
4427.096823
4428.004029
4437.849349
4439.315474
4430.836267
4435.455344
4440.466974
4436.611777
4464.004801
4418.147320
4485.927204
4490.479482
4434.839199
4442.937003
4437.258386
4409.117527
4455.419604
4440.004036
4443.205649
4419.707392
4464.706210
4428.691051
4431.215858
4425.488831
4416.129488
4446.344523
4418.448721
4428.173989
4430.502624
4438.740923
4431.747234
4433.741884
4439.545760
4423.749916
4404.685282
4432.014272
4419.710090
4416.890177
4427.394335
4436.630811
4423.654967
4440.245236
4430.466006
4428.012453
4453.041532
4436.872275
4407.956210
4400.633975
4412.827533
4421.820919
4415.710031
4443.183642
4399.730755
4405.243784
4428.535200
4434.965045
4446.089256
4412.512012
4444.446061
4444.191009
4414.976653
4415.759069
4435.091030
4443.021912
4426.921346
4407.895192
4423.755886
4431.009372
4426.611025
4438.236541
4439.916437
4464.867869
4440.820443
4441.748478
4433.795426
4445.333201
4486.838788
4430.126965
4444.429372
4449.852199
4369.619234
4439.291041
4403.007322
4443.887104
4440.753868
4456.715140
4423.869165
4436.754032
4418.722683
4443.988462
4444.720313
4415.926212
4417.384955
4444.911433
4409.143583
4421.506621
4460.072459
4478.155003
4390.388230
4508.697594
4419.570086
4425.826448
4426.611105
4471.746735
4439.597946
4426.345333
4356.934308
4438.347015
4401.818372
4443.708035
4472.764847
4456.230359
4467.866864
4451.863073
4410.482266
4435.014241
4431.834486
4408.762340
4410.535360
4424.372044
4422.510030
4418.735037
4423.213627
4421.283632
4430.227776
4438.079826
4428.152392
4427.873327
4445.794191
4382.058057
4435.357490
4435.530036
4443.808856
4416.930780
4442.616502
4435.742694
4452.708679
4409.469877
4442.291516
4431.088787
4399.557866
4355.270106
4449.346565
4396.148501
4433.919718
4440.287478
4455.317929
4418.426128
4445.603286
4430.624217
4455.907958
4429.604806
4435.128176
4416.643620
4443.869988
4413.985561
4420.349573
4440.834531
4417.424346
4411.403429
4429.231919
4390.752535
4373.274643
4471.709884
4428.022829
4489.378905
4400.431745
4420.689618
4441.957480
4435.109209
4435.145986
4457.573460
4447.657279
4383.211558
4363.561500
4444.007443
4374.710205
4370.854256
4411.666276
4433.820633
4456.563156
4413.460802
4412.888534
4416.107038
4436.045622
4417.129345
4463.590992
4428.655384
4446.316187
4430.656020
4408.562854
4440.272344
4465.223463
4454.240155
4430.030591
4431.060558
4449.346603
4385.448016
4446.725016
4409.879686
4365.664626
4426.765836
4404.508785
4424.499256
4388.243645
4441.926982
4439.832678
4477.004240
4456.130738
4478.796302
4422.896319
4424.022574
4444.984385
4407.597678
4458.358028
4421.903287
4426.279046
4430.097958
4430.064809
4430.177255
4430.010463
4429.572537
4429.360803
4429.013683
4429.341525
4429.969588
4430.899207
4431.287240
4431.157978
4430.763643
4430.322191
4427.424162
4429.505987
4428.597618
4429.028775
4429.879250
4430.984599
4432.232924
4433.212660
4433.339806
4431.854154
4430.189878
4429.068885
4429.173448
4430.344798
4431.192875
4428.362957
4429.690139
4430.383292
4430.610630
4430.126936
4428.889182
4427.967774
4426.660738
4426.901707
4428.457880
4430.836124
4431.954013
4431.415310
4430.407359
4428.756368
4428.783021
4429.297848
4428.434685
4428.466913
4429.446171
4430.678626
4432.137800
4433.645658
4433.540799
4432.066315
4429.321619
4428.003569
4427.689832
4428.987238
4429.461770
4429.236940
4429.716622
4430.492928
4430.754514
4429.970174
4428.858654
4427.538409
4426.005046
4426.257849
4427.549218
4430.469828
4431.423706
4431.731163
4429.190158
4429.917911
4429.156973
4429.368889
4428.373375
4428.251056
4429.407265
4430.253549
4432.178219
4433.125305
4433.668967
4431.332167
4429.394691
4426.913933
4427.973223
4428.027408
4429.442569
4429.479936
4429.555487
4430.784616
4430.550344
4429.963873
4428.731777
4427.262720
4425.840680
4425.829065
4427.347745
4429.872522
4431.370898
4430.423120
4428.015329
4427.391052
4429.161454
4429.174189
4428.532908
4428.005121
4429.354810
4430.040201
4431.981578
4432.937161
4433.437501
4431.176102
4429.146030
4426.753960
4427.655363
4427.541738
4429.351689
4429.001428
4429.741947
4430.506391
4430.394771
4430.161200
4428.205262
4427.631713
4425.161448
4426.171414
4426.731363
4430.105507
4431.257121
4431.962175
4429.475057
4430.448703
4429.080825
4429.328658
4428.131780
4428.298959
4428.759160
4430.414429
4431.140922
4433.374337
4432.721757
4431.380165
4428.978556
4426.673671
4428.225033
4428.949789
4428.775609
4429.110122
4429.926566
4430.142986
4430.891048
4429.264445
4428.870455
4426.593821
4425.835242
4425.291140
4427.346917
4428.975050
4432.168252
4429.553249
4429.449676
4428.387030
4428.872966
4429.289470
4427.952911
4427.971332
4428.750564
4429.942218
4431.113325
4433.065147
4432.772479
4431.239116
4428.681939
4426.809539
4427.468615
4428.205094
4428.900545
4428.923127
4429.477921
4430.439243
4430.396053
4429.498499
4428.258837
4427.097735
4425.170920
4425.911737
4426.422558
4429.825176
4431.232421
4432.239118
4429.939226
4431.646478
4437.895940
4438.011527
4436.641159
4439.271435
4422.283311
4453.182499
4431.490833
4395.602023
4408.434543
4448.798112
4457.043081
4401.460970
4421.161451
4452.784299
4425.385831
4428.979978
4428.699535
4428.884981
4428.163285
4427.181647
4429.088127
4429.260086
4431.282362
4432.531035
4432.896931
4430.615311
4428.959567
4426.382046
4428.397093
4429.445366
4432.184486
4435.100970
4434.692596
4419.678094
4403.873351
4410.991506
4441.232291
4423.074873
4399.501491
4388.474595
4418.119913
4425.699475
4438.143481
4432.221976
4387.278976
4435.481447
4410.860859
4428.557336
4429.308562
4430.373457
4430.198908
4429.417492
4427.960388
4427.169240
4424.991842
4425.805342
4426.127871
4429.112953
4431.040469
4431.059048
4429.342185
4431.028132
4451.371448
4432.239087
4418.396476
4425.658064
4410.962802
4450.108344
4426.301834
4430.869366
4395.756809
4436.490412
4434.195857
4419.094276
4431.873613
4444.511111
4445.114280
4427.605331
4428.483753
4428.995586
4427.612525
4427.410960
4428.247095
4429.720795
4430.236844
4432.966822
4431.724046
4430.947391
4427.767364
4425.745368
4426.584429
4427.007694
4429.196215
4443.175146
4424.676757
4405.566425
4384.029793
4397.236900
4450.421797
4427.024642
4445.792597
4445.276846
4452.848529
4427.934502
4429.450633
4377.422777
4404.872685
4454.075905
4450.999219
4428.234519
4429.463998
4429.977868
4430.232041
4429.245443
4427.854013
4427.015327
4424.897674
4425.611561
4425.514757
4428.392930
4430.419009
4429.078662
4426.889876
4425.490954
4451.000312
4412.289581
4455.650741
4453.099520
4443.174045
4433.466841
4440.277513
4450.349040
4405.549791
4436.050454
4388.894496
4429.125041
4423.268113
4428.039081
4431.862272
4420.725911
4428.039479
4428.869283
4427.425734
4427.276949
4427.980748
4429.677552
4429.910283
4432.752952
4431.438445
4430.649619
4427.331466
4424.857539
4426.215482
4425.799467
4425.103533
4417.934563
4389.948730
4425.782820
4402.923699
4482.073748
4385.810622
4431.837157
4439.777312
4433.941843
4400.796323
4395.920093
4422.967505
4421.527549
4419.792504
4444.469641
4419.375622
4428.346193
4429.386414
4429.935031
4430.339710
4428.970364
4428.095440
4426.497832
4425.311762
4425.227677
4425.456805
4427.677872
4430.542920
4427.461724
4426.943455
4426.066313
4451.658303
4418.001010
4472.279514
4404.008331
4363.085032
4444.058697
4431.437406
4431.994705
4440.747141
4435.625576
4421.999606
4466.847448
4445.068255
4422.341374
4476.662640
4406.035225
4427.878246
4428.707520
4427.369341
4426.855966
4427.974843
4429.143742
4429.936093
4432.364340
4431.698013
4430.295077
4427.501731
4424.545683
4426.276903
4426.148538
4423.506179
4437.496703
4432.458155
4432.540435
4451.614682
4406.386492
4471.963945
4418.073588
4425.174631
4422.402073
4393.587572
4448.511579
4392.182116
4466.626094
4386.344180
4424.814108
4427.314672
4428.077090
4429.069342
4430.102707
4430.086173
4429.080171
4427.664098
4426.883270
4425.066104
4425.922136
4424.942677
4428.165472
4430.690128
4429.235089
4427.191603
4428.924703
4407.438427
4412.460263
4436.277903
4419.137007
4442.690742
4437.176973
4421.204808
4423.475296
4358.495804
4422.723515
4405.663116
4403.175437
4458.475293
4450.999006
4426.509399
4390.812210
4427.843117
4428.444025
4427.510029
4426.261284
4428.051489
4428.676814
4429.877682
4432.266385
4431.491421
4430.549889
4427.335887
4424.684753
4427.420766
4426.624017
4429.269595
4442.083531
4404.809907
4437.607865
4446.869096
4365.344076
4418.055867
4430.463224
4442.416650
4432.530581
4427.284898
4436.688654
4446.286293
4398.060073
4450.629058
4377.178677
4447.098732
4427.837200
4429.018477
4429.927428
4430.184073
4428.925568
4427.579738
4427.002343
4425.165406
4426.167491
4424.517315
4428.024065
4430.796680
4428.947339
4428.829731
4426.632163
4428.496889
4410.428080
4451.572450
4451.423154
4467.896775
4429.465071
4458.270728
4449.889674
4401.352222
4453.991886
4401.339549
4426.905772
4463.382862
4382.484436
4435.926782
4399.436006
4427.743344
4428.597145
4427.110971
4426.468882
4427.280743
4429.050774
4429.232605
4432.272586
4431.297633
4430.643362
4426.798874
4424.757019
4425.670937
4426.846511
4426.164145
4432.571578
4421.273844
4409.657910
4396.314598
4415.495526
4419.153205
4431.538154
4442.649051
4456.076177
4442.579132
4463.007120
4401.450325
4428.415428
4420.725195
4433.883208
4442.003768
4427.614112
4429.300936
4429.535647
4430.299794
4429.077278
4427.753490
4426.695733
4426.126831
4425.424509
4424.972256
4427.058231
4430.602620
4427.938156
4426.906486
4426.110499
4415.600862
4441.072768
4418.566732
4425.021790
4444.440091
4430.980657
4443.308365
4433.758792
4429.876941
4419.552576
4414.020058
4451.925135
4400.547835
4414.776286
4503.516589
4443.998533
4427.452246
4429.050532
4426.412711
4427.152516
4426.344395
4429.886479
4428.333504
4432.694529
4431.005487
4430.532598
4426.547545
4424.627246
4424.882907
4425.863442
4425.335319
4425.143820
4430.647205
4397.578474
4462.334202
4434.215856
4420.738563
4425.255931
4425.425472
4417.808753
4450.528809
4434.713220
4446.386447
4384.019922
4410.832719
4405.789902
4453.016591
4427.391866
4429.755332
4429.022889
4431.116819
4428.428439
4428.467039
4425.705630
4426.950430
4424.881100
4425.420830
4426.480477
4430.550152
4427.598011
4427.873972
4423.939101
4424.440147
4435.227525
4398.259608
4445.154169
4424.783522
4437.820495
4415.860572
4437.946065
4436.388472
4432.736880
4408.026218
4421.227542
4427.235137
4446.514960
4408.458710
4397.944119
4427.583279
4428.756185
4426.834128
4426.339486
4427.003895
4428.699858
4428.783285
4432.823315
4430.810001
4431.149087
4426.318025
4425.379235
4424.076439
4426.062888
4424.799340
4434.096881
4437.514698
4395.358853
4401.744384
4424.237663
4449.197061
4422.197874
4425.182954
4415.480885
4462.599602
4436.491350
4430.249557
4446.195025
4403.030569
4432.588680
4429.386934
4427.799611
4429.145230
4429.875868
4430.761244
4428.530895
4428.476864
4426.468075
4426.311619
4426.792225
4424.655911
4426.879073
4430.330546
4429.422524
4427.006737
4425.529120
4407.433715
4409.736478
4427.272563
4430.081605
4396.370014
4430.928615
4441.078722
4422.170761
4462.108274
4418.419456
4450.448560
4405.003116
4423.397303
4421.259898
4422.464596
4417.232732
4427.944803
4428.643414
4427.029925
4425.864660
4427.092696
4427.714018
4429.729116
4432.042249
4431.208685
4430.656074
4427.263106
4423.554799
4425.073152
4425.163597
4425.690072
4443.569658
4445.262332
4439.121728
4457.464581
4385.047993
4416.987450
4438.625993
4401.229784
4472.027126
4459.861662
4442.499608
4385.967717
4440.799919
4437.745673
4419.934867
4430.787359
4427.877112
4428.529023
4430.437079
4429.636137
4429.695389
4427.250795
4427.763547
4425.335452
4427.636401
4423.671016
4426.599867
4431.021944
4428.013109
4425.853952
4428.182054
4440.508797
4427.316093
4413.811147
4457.155128
4387.500616
4435.007201
4426.450429
4434.877958
4436.178045
4455.273078
4463.581299
4402.275116
4422.890943
4428.301065
4370.424623
4433.615226
4427.773252
4428.965061
4426.867803
4426.375354
4426.022720
4428.914732
4428.929893
4432.623980
4431.591627
4431.578159
4426.885503
4423.998768
4423.773364
4424.202966
4424.734699
4429.633712
4424.615423
4418.646448
4380.964674
4430.832322
4444.270737
4444.596406
4422.693497
4403.494354
4450.091288
4400.764982
4415.463717
4399.433316
4438.972292
4411.888134
4445.400057
4427.569890
4429.720715
4428.670798
4431.699027
4429.004042
4428.930557
4427.045274
4427.962817
4426.046163
4424.559238
4426.915506
4430.023537
4427.589167
4427.198826
4423.241015
4424.780404
4424.507967
4427.041296
4429.480062
4454.832119
4416.064174
4415.525583
4476.704367
4393.988781
4451.737742
4408.798997
4386.244961
4479.985817
4421.090445
4567.163315
4411.394698
4427.595349
4429.084186
4427.383798
4426.245331
4426.375360
4429.106394
4427.880467
4433.997777
4430.300914
4431.229698
4426.172948
4425.751332
4422.672970
4425.582648
4422.308111
4434.993442
4437.739488
4433.852751
4416.535348
4462.670951
4461.531893
4439.745226
4432.403865
4468.902211
4445.923954
4438.754380
4452.504745
4446.123663
4435.816144
4273.799945
4428.173089
4428.050586
4430.101396
4428.805337
4432.482331
4428.046207
4429.696513
4425.371905
4428.424716
4424.050610
4426.078977
4425.214638
4429.633555
4426.708722
4427.112062
4420.776004
4425.456754
4404.122412
4410.338909
4427.158842
4448.914606
4416.203566
4440.652387
4443.837465
4440.546655
4420.567580
4410.947137
4440.005280
4449.922094
4447.513855
4378.485627
4396.027547