# vtk DataFile Version 2.0
mfree iwf
ASCII

DATASET UNSTRUCTURED_GRID
POINTS 9768 float
0.000000 0.000445 0.000000
0.000000 0.000450 0.000000
0.000000 0.000455 0.000000
0.000000 0.000460 0.000000
0.000000 0.000465 0.000000
0.000000 0.000470 0.000000
0.000000 0.000475 0.000000
0.000000 0.000480 0.000000
0.000000 0.000485 0.000000
0.000000 0.000490 0.000000
-0.000000 0.000496 0.000000
0.000002 0.000500 0.000000
0.000433 0.000778 0.000000
0.000440 0.000784 0.000000
0.000478 0.000811 0.000000
0.000483 0.000814 0.000000
0.000483 0.000814 0.000000
0.000488 0.000817 0.000000
0.000495 0.000820 0.000000
0.000493 0.000819 0.000000
0.000504 0.000826 0.000000
0.000528 0.000838 0.000000
0.000535 0.000840 0.000000
0.000539 0.000840 0.000000
0.000544 0.000841 0.000000
0.000549 0.000841 0.000000
0.000553 0.000842 0.000000
0.000559 0.000842 0.000000
0.000563 0.000843 0.000000
0.000570 0.000843 0.000000
0.000576 0.000844 0.000000
0.000601 0.000849 0.000000
0.000005 0.000445 0.000000
0.000005 0.000450 0.000000
0.000005 0.000455 0.000000
0.000005 0.000460 0.000000
0.000005 0.000465 0.000000
0.000005 0.000470 0.000000
0.000005 0.000475 0.000000
0.000005 0.000480 0.000000
0.000005 0.000485 0.000000
0.000006 0.000490 0.000000
0.000004 0.000496 0.000000
0.000006 0.000499 0.000000
0.000474 0.000808 0.000000
0.000486 0.000807 0.000000
0.000511 0.000827 0.000000
0.000517 0.000831 0.000000
0.000522 0.000833 0.000000
0.000525 0.000834 0.000000
0.000528 0.000835 0.000000
0.000533 0.000835 0.000000
0.000538 0.000835 0.000000
0.000545 0.000836 0.000000
0.000551 0.000837 0.000000
0.000558 0.000838 0.000000
0.000564 0.000837 0.000000
0.000572 0.000840 0.000000
0.000576 0.000840 0.000000
0.000582 0.000840 0.000000
0.000591 0.000845 0.000000
0.000594 0.000846 0.000000
0.000588 0.000845 0.000000
0.000599 0.000848 0.000000
0.000010 0.000445 0.000000
0.000010 0.000450 0.000000
0.000010 0.000455 0.000000
0.000010 0.000460 0.000000
0.000010 0.000465 0.000000
0.000011 0.000470 0.000000
0.000010 0.000475 0.000000
0.000011 0.000479 0.000000
0.000009 0.000487 0.000000
0.000012 0.000489 0.000000
0.000009 0.000497 0.000000
0.000011 0.000498 0.000000
0.000478 0.000805 0.000000
0.000489 0.000807 0.000000
0.000501 0.000818 0.000000
0.000506 0.000822 0.000000
0.000510 0.000825 0.000000
0.000515 0.000828 0.000000
0.000515 0.000820 0.000000
0.000524 0.000825 0.000000
0.000526 0.000828 0.000000
0.000534 0.000830 0.000000
0.000539 0.000831 0.000000
0.000545 0.000833 0.000000
0.000551 0.000831 0.000000
0.000556 0.000830 0.000000
0.000560 0.000835 0.000000
0.000570 0.000837 0.000000
0.000585 0.000840 0.000000
0.000588 0.000842 0.000000
0.000596 0.000843 0.000000
0.000601 0.000840 0.000000
0.000015 0.000445 0.000000
0.000015 0.000450 0.000000
0.000015 0.000455 0.000000
0.000016 0.000460 0.000000
0.000015 0.000466 0.000000
0.000016 0.000470 0.000000
0.000014 0.000476 0.000000
0.000016 0.000480 0.000000
0.000014 0.000484 0.000000
0.000016 0.000489 0.000000
0.000014 0.000495 0.000000
0.000017 0.000497 0.000000
0.000025 0.000500 0.000000
0.000491 0.000810 0.000000
0.000503 0.000818 0.000000
0.000506 0.000815 0.000000
0.000517 0.000822 0.000000
0.000519 0.000829 0.000000
0.000528 0.000824 0.000000
0.000533 0.000826 0.000000
0.000539 0.000822 0.000000
0.000544 0.000829 0.000000
0.000556 0.000825 0.000000
0.000554 0.000834 0.000000
0.000565 0.000830 0.000000
0.000567 0.000833 0.000000
0.000573 0.000832 0.000000
0.000576 0.000835 0.000000
0.000582 0.000834 0.000000
0.000588 0.000836 0.000000
0.000593 0.000837 0.000000
0.000602 0.000837 0.000000
0.000020 0.000445 0.000000
0.000020 0.000450 0.000000
0.000019 0.000455 0.000000
0.000021 0.000460 0.000000
0.000019 0.000465 0.000000
0.000022 0.000469 0.000000
0.000019 0.000474 0.000000
0.000022 0.000479 0.000000
0.000019 0.000486 0.000000
0.000021 0.000491 0.000000
0.000021 0.000497 0.000000
0.000022 0.000499 0.000000
0.000039 0.000500 0.000000
0.000496 0.000804 0.000000
0.000499 0.000810 0.000000
0.000505 0.000811 0.000000
0.000509 0.000819 0.000000
0.000519 0.000817 0.000000
0.000527 0.000818 0.000000
0.000538 0.000826 0.000000
0.000532 0.000821 0.000000
0.000545 0.000824 0.000000
0.000551 0.000818 0.000000
0.000558 0.000820 0.000000
0.000562 0.000825 0.000000
0.000569 0.000828 0.000000
0.000575 0.000827 0.000000
0.000584 0.000829 0.000000
0.000586 0.000831 0.000000
0.000595 0.000832 0.000000
0.000597 0.000836 0.000000
0.000603 0.000833 0.000000
0.000025 0.000445 0.000000
0.000025 0.000450 0.000000
0.000026 0.000455 0.000000
0.000025 0.000460 0.000000
0.000024 0.000465 0.000000
0.000026 0.000472 0.000000
0.000023 0.000476 0.000000
0.000027 0.000480 0.000000
0.000024 0.000485 0.000000
0.000026 0.000488 0.000000
0.000027 0.000492 0.000000
0.000027 0.000500 0.000000
0.000455 0.000796 0.000000
0.000495 0.000812 0.000000
0.000497 0.000813 0.000000
0.000513 0.000816 0.000000
0.000516 0.000812 0.000000
0.000523 0.000820 0.000000
0.000532 0.000815 0.000000
0.000525 0.000815 0.000000
0.000537 0.000817 0.000000
0.000543 0.000820 0.000000
0.000549 0.000825 0.000000
0.000551 0.000823 0.000000
0.000560 0.000829 0.000000
0.000566 0.000823 0.000000
0.000579 0.000830 0.000000
0.000577 0.000823 0.000000
0.000591 0.000830 0.000000
0.000586 0.000825 0.000000
0.000598 0.000829 0.000000
0.000603 0.000828 0.000000
0.000030 0.000445 0.000000
0.000030 0.000450 0.000000
0.000029 0.000456 0.000000
0.000031 0.000460 0.000000
0.000031 0.000465 0.000000
0.000029 0.000468 0.000000
0.000031 0.000472 0.000000
0.000031 0.000477 0.000000
0.000031 0.000486 0.000000
0.000031 0.000492 0.000000
0.000033 0.000497 0.000000
0.000031 0.000499 0.000000
0.000049 0.000500 0.000000
0.000488 0.000801 0.000000
0.000507 0.000806 0.000000
0.000511 0.000811 0.000000
0.000513 0.000808 0.000000
0.000521 0.000811 0.000000
0.000534 0.000811 0.000000
0.000544 0.000817 0.000000
0.000537 0.000814 0.000000
0.000547 0.000814 0.000000
0.000555 0.000818 0.000000
0.000569 0.000819 0.000000
0.000563 0.000819 0.000000
0.000571 0.000823 0.000000
0.000575 0.000818 0.000000
0.000581 0.000824 0.000000
0.000591 0.000821 0.000000
0.000592 0.000825 0.000000
0.000598 0.000825 0.000000
0.000604 0.000824 0.000000
0.000035 0.000445 0.000000
0.000035 0.000450 0.000000
0.000036 0.000454 0.000000
0.000036 0.000457 0.000000
0.000035 0.000466 0.000000
0.000037 0.000472 0.000000
0.000032 0.000479 0.000000
0.000042 0.000478 0.000000
0.000035 0.000483 0.000000
0.000034 0.000488 0.000000
0.000038 0.000491 0.000000
0.000036 0.000498 0.000000
0.000426 0.000767 0.000000
0.000453 0.000794 0.000000
0.000500 0.000802 0.000000
0.000510 0.000803 0.000000
0.000523 0.000806 0.000000
0.000522 0.000802 0.000000
0.000527 0.000811 0.000000
0.000534 0.000806 0.000000
0.000543 0.000811 0.000000
0.000544 0.000807 0.000000
0.000553 0.000806 0.000000
0.000561 0.000815 0.000000
0.000563 0.000812 0.000000
0.000578 0.000813 0.000000
0.000583 0.000818 0.000000
0.000585 0.000811 0.000000
0.000589 0.000820 0.000000
0.000595 0.000818 0.000000
0.000599 0.000820 0.000000
0.000605 0.000818 0.000000
0.000040 0.000445 0.000000
0.000041 0.000450 0.000000
0.000037 0.000461 0.000000
0.000042 0.000457 0.000000
0.000042 0.000463 0.000000
0.000039 0.000468 0.000000
0.000041 0.000473 0.000000
0.000037 0.000477 0.000000
0.000041 0.000488 0.000000
0.000042 0.000491 0.000000
0.000041 0.000497 0.000000
0.000045 0.000498 0.000000
0.000378 0.000616 0.000000
0.000482 0.000805 0.000000
0.000494 0.000799 0.000000
0.000510 0.000795 0.000000
0.000518 0.000807 0.000000
0.000529 0.000807 0.000000
0.000527 0.000803 0.000000
0.000539 0.000808 0.000000
0.000551 0.000811 0.000000
0.000554 0.000814 0.000000
0.000549 0.000805 0.000000
0.000563 0.000807 0.000000
0.000569 0.000812 0.000000
0.000574 0.000810 0.000000
0.000572 0.000815 0.000000
0.000580 0.000817 0.000000
0.000587 0.000816 0.000000
0.000593 0.000812 0.000000
0.000600 0.000815 0.000000
0.000605 0.000814 0.000000
0.000045 0.000445 0.000000
0.000046 0.000450 0.000000
0.000045 0.000454 0.000000
0.000045 0.000461 0.000000
0.000045 0.000467 0.000000
0.000046 0.000473 0.000000
0.000046 0.000479 0.000000
0.000040 0.000483 0.000000
0.000052 0.000486 0.000000
0.000045 0.000483 0.000000
0.000048 0.000493 0.000000
0.000050 0.000498 0.000000
0.000378 0.000626 0.000000
0.000472 0.000806 0.000000
0.000502 0.000806 0.000000
0.000516 0.000801 0.000000
0.000517 0.000799 0.000000
0.000532 0.000801 0.000000
0.000536 0.000801 0.000000
0.000541 0.000803 0.000000
0.000548 0.000801 0.000000
0.000558 0.000805 0.000000
0.000558 0.000810 0.000000
0.000569 0.000808 0.000000
0.000561 0.000802 0.000000
0.000577 0.000805 0.000000
0.000582 0.000809 0.000000
0.000589 0.000811 0.000000
0.000591 0.000806 0.000000
0.000596 0.000811 0.000000
0.000600 0.000810 0.000000
0.000606 0.000809 0.000000
0.000049 0.000445 0.000000
0.000051 0.000450 0.000000
0.000048 0.000457 0.000000
0.000053 0.000459 0.000000
0.000049 0.000463 0.000000
0.000050 0.000472 0.000000
0.000051 0.000468 0.000000
0.000051 0.000477 0.000000
0.000047 0.000488 0.000000
0.000052 0.000491 0.000000
0.000058 0.000492 0.000000
0.000053 0.000498 0.000000
0.000397 0.000716 0.000000
0.000470 0.000798 0.000000
0.000483 0.000801 0.000000
0.000508 0.000799 0.000000
0.000521 0.000795 0.000000
0.000525 0.000797 0.000000
0.000529 0.000797 0.000000
0.000534 0.000795 0.000000
0.000547 0.000796 0.000000
0.000544 0.000799 0.000000
0.000553 0.000797 0.000000
0.000565 0.000800 0.000000
0.000567 0.000804 0.000000
0.000572 0.000803 0.000000
0.000579 0.000805 0.000000
0.000586 0.000800 0.000000
0.000585 0.000804 0.000000
0.000595 0.000804 0.000000
0.000601 0.000805 0.000000
0.000606 0.000804 0.000000
0.000054 0.000445 0.000000
0.000057 0.000450 0.000000
0.000054 0.000454 0.000000
0.000054 0.000462 0.000000
0.000057 0.000466 0.000000
0.000055 0.000472 0.000000
0.000057 0.000477 0.000000
0.000057 0.000481 0.000000
0.000052 0.000482 0.000000
0.000057 0.000486 0.000000
0.000056 0.000497 0.000000
0.000059 0.000496 0.000000
0.000408 0.000737 0.000000
0.000469 0.000805 0.000000
0.000476 0.000800 0.000000
[...]
POINT_DATA 9768
SCALARS density float 1
LOOKUP_TABLE default
4427.890314
4429.349384
4425.818714
4422.217341
4433.187369
4431.636356
4428.210379
4433.565858
4435.165325
4414.873222
4432.721144
4403.445167
4420.032987
4437.620179
4431.385671
4428.353956
4439.764907
4427.115971
4435.517094
4442.917733
4436.709235
4419.912136
4411.061848
4440.559886
4441.804381
4435.836528
4445.434416
4445.817626
4415.336503
4451.957296
4433.542002
4437.501229
4430.595512
4431.005905
4433.990527
4437.271644
4430.048979
4418.343158
4428.408172
4429.170990
4418.084440
4421.006394
4453.290493
4408.579932
4424.455386
4439.978877
4416.231358
4405.437935
4424.183059
4410.159708
4414.414197
4466.065216
4414.439724
4384.249352
4422.224472
4397.728424
4429.189745
4400.887198
4412.064224
4452.691936
4403.124601
4417.323801
4405.749664
4411.255147
4427.358353
4436.667468
4424.681143
4422.241148
4424.642951
4420.149290
4459.116573
4390.647644
4465.640238
4402.854575
4446.834330
4397.057440
4427.215097
4450.732763
4404.751490
4383.784074
4391.242646
4411.164825
4479.977404
4408.759904
4448.827290
4409.164684
4406.819779
4468.245327
4409.289995
4411.903391
4446.977424
4420.124148
4453.792382
4441.363560
4465.539240
4424.994906
4431.656325
4437.697157
4447.714978
4418.588398
4446.024628
4408.615797
4451.612000
4390.505574
4472.262338
4361.163485
4512.644388
4409.785920
4436.309751
4394.891733
4438.057049
4432.322950
4460.421439
4445.747173
4428.859655
4431.959411
4434.341183
4439.767253
4414.790019
4446.772264
4405.541101
4459.024175
4425.246371
4475.664464
4409.461351
4358.571713
4493.585873
4464.387381
4432.304324
4429.456563
4431.365869
4429.999517
4449.563420
4416.853734
4437.967965
4421.011044
4469.819360
4371.109573
4478.885460
4436.743860
4420.757805
4418.638016
4446.736719
4390.319881
4530.100924
4422.774583
4474.306513
4446.750469
4413.798758
4405.454319
4403.160488
4429.438260
4431.463361
4420.560625
4413.834444
4476.938304
4456.731263
4441.922893
4331.898067
4425.769856
4430.669790
4441.671594
4447.564255
4424.677674
4421.838323
4418.648296
4472.468608
4357.191109
4444.707846
4463.101158
4404.990855
4427.473329
4425.338797
4432.491804
4432.383625
4333.342628
4477.552703
4380.208735
4420.870151
4428.056856
4421.396739
4439.180042
4449.294859
4423.381391
4442.183692
4455.755926
4395.305199
4443.385846
4449.610227
4364.184175
4440.013769
4421.290387
4428.287203
4406.275246
4420.278785
4418.032637
4441.494723
4447.889113
4404.161066
4476.654632
4433.440001
4421.066665
4453.523540
4422.003633
4417.231281
4420.374186
4440.183621
4456.409624
4419.507945
4428.614076
4450.039039
4446.890984
4446.647436
4439.309922
4436.018685
4406.249522
4403.609928
4424.266052
4411.025505
4421.736447
4476.047616
4384.242486
4432.055974
4445.399567
4432.630720
4431.944416
4437.816977
4453.088690
4436.011875
4435.544134
4451.132617
4422.819172
4410.606625
4435.355964
4406.223897
4444.755552
4421.054341
4418.362634
4428.870583
4414.993967
4441.238299
4448.538557
4419.936642
4429.419131
4413.243122
4449.779676
4418.021067
4452.836361
4433.568555
4399.465049
4426.881900
4435.000511
4491.208512
4389.080930
4419.816505
4413.212118
4428.489326
4416.331724
4422.435080
4399.918959
4442.718009
4427.114233
4453.178220
4410.380520
4446.394349
4428.200135
4439.718076
4422.321388
4564.619648
4387.771729
4397.905168
4449.957908
4394.031194
4444.464092
4431.129398
4430.866377
4421.904541
4423.037333
4439.141684
4404.822399
4427.215945
4403.624655
4459.198372
4440.643113
4400.175606
4416.437680
4454.249773
4418.884618
4433.731818
4419.500914
4449.109857
4443.336717
4400.581439
4426.432165
4427.412316
4431.027638
4428.672795
4425.969104
4475.991219
4436.885016
4468.673361
4424.906451
4435.793331
4444.458704
4443.517262
4437.387237
4426.076024
4440.581164
4417.941484
4455.178897
4414.166553
4447.325578
4429.706116
4439.788725
4439.234692
4460.468067
4431.474121
4442.815058
4427.152260
4423.192581
4425.371112
4411.496903
4390.050390
4446.189213
4432.748416
4454.110375
4427.782860
4380.743985
4382.358832
4417.789598
4509.103248
4412.621862
4429.904815
4455.449381
4429.533924
4448.440333
4453.711909
4406.295879
4448.383536
4408.935105
4449.880689
4429.112415
4450.868722
4412.561105
4439.454138
4432.768275
4449.407392
4454.761728
4400.028808
4408.763840
4426.994039
4437.781386
4431.235917
4417.547385
4455.286811
4437.452357
4415.076451
4430.396514
4416.932291
4442.595758
4471.633978
4367.812242
4424.205178
4406.684157
4434.343151
4410.992543
4481.422061
4412.145485
4454.583622
4428.752082
4411.323478
4455.884121
4410.072201
4439.995078
4415.123487
4412.947832
4411.149040
4406.775756
4445.281235
4433.693215
4441.417336
4448.768328
4428.344033
4420.890512
4429.007735
4436.520379
4420.158218
4435.131108
4419.557777
4414.965424
4443.306799
4399.136722
4480.067069
4411.288833
4443.685063
4433.608474
4415.269439
4429.982129
4451.558942
4388.699845
4363.819126
4462.753139
4420.634853
4445.199959
4430.057493
4411.338319
4449.499720
4430.590215
4422.632940
4426.196944
4441.397200
4451.025346
4409.734752
4417.850121
4419.645376
4435.910759
4437.354812
4432.340916
4424.937394
4431.646367
4451.809630
4433.399202
4443.308838
4429.396118
4458.691764
4361.601320
4472.241858
4423.802010
4424.119325
4413.976201
4441.884118
4416.505739
4462.376368
4393.474118
4415.601381
4424.192074
4388.884366
4435.887984
4459.020765
4457.848395
4407.053920
4418.466359
4417.697569
4432.531667
4430.969869
4455.560977
4425.464387
4423.487126
4426.445407
4432.913830
4416.084004
4420.271165
4414.692147
4451.321079
4403.295397
4431.903639
4380.384947
4437.311695
4431.439111
4454.119153
4438.120130
4416.236802
4433.414551
4500.794434
4455.403157
4432.570252
4461.970244
4467.903021
4366.476548
4443.303500
4421.747549
4422.917073
4414.519167
4456.106550
4445.407741
4438.005570
4417.684947
4401.469040
4431.632033
4433.315319
4443.952534
4403.890112
4435.579981
4438.902883
4434.076945
4444.290075
4451.448153
4463.753068
4479.318861
4332.354304
4425.018327
4452.664402
4426.498463
4419.681832
4425.288526
4362.706560
4440.317993
4469.101593
4408.847747
4463.807407
4449.133988
4422.723079
4456.709963
4454.048866
4438.139493
4441.062590
4382.985513
4444.640260
4430.408374
4452.871288
4423.481827
4419.686143
4412.038963
4440.200723
4439.907539
4422.265153
4407.622092
4394.061648
4442.799941
4405.756132
4444.480111
4504.330176
4424.820111
4421.207851
4417.252293
4429.767842
4450.391891
4434.870125
4458.453343
4407.766223
4426.039835
4424.918787
4412.845708
4461.099972
4446.800054
4423.578004
4429.789708
4412.409899
4440.881772
4453.616786
4394.959194
4441.547909
4418.233841
4439.185400
4434.275597
4418.457267
4410.455866
4449.027824
4460.904284
4420.286703
4434.231193
4444.794243
4388.435997
4358.662612
4438.498913
4454.839982
4537.693993
4451.044488
4446.887868
4435.073987
4366.129189
4381.282161
4472.513166
4464.455430
4449.944422
4486.993777
4404.158066
4430.203885
4423.666144
4446.145166
4405.862686
4395.097562
4454.611091
4440.860603
4422.805252
4432.644917
4423.747678
4426.527600
4449.081550
4422.982747
4401.994187
4450.394767
4436.000807
4485.436542
4438.150845
4441.435999
4397.371464
4429.073402
4417.131623
4416.336824
4432.088511
4426.456393
4435.698631
4392.295275
4462.440430
4402.489642
4401.243879
4444.736903
4404.799975
4419.818089
4445.487498
4433.454774
4448.850021
4436.048526
4442.146453
4410.513525
4421.828931
4424.374401
4442.835817
4434.452037
4410.899746
4416.849374
4429.190838
4406.886626
4423.405597
4378.548691
4481.995203
4434.001062
4427.804784
4434.712620
4409.030675
4432.300412
4446.775180
4433.825874
4405.512023
4443.450754
4441.180366
4392.887381
4519.180714
4412.246579
4430.043026
4436.298934
4449.371871
4426.429285
4436.648894
4415.457297
4415.869237
4445.435161
4438.510425
4428.306757
4419.626744
4423.229229
4443.352877
4434.503717
4442.526436
4444.638396
4398.013421
4414.644835
4434.636981
4477.538445
4385.206105
4542.489132
4430.124066
4438.113222
4425.869049
4457.759755
4443.019098
4443.766869
4471.047219
4455.334719
4419.428374
4457.987786
4485.909783
4400.950858
4453.083987
4420.351426
4438.207840
4442.237292
4460.397991
4418.338681
4420.108333
4425.224922
4441.379765
4434.705699
4407.822361
4419.600555
4442.642523
4417.211067
4370.158308
4433.348508
4483.537156
4376.944138
4425.786987
4431.007285
4423.110519
4428.361867
4421.174395
4420.774073
4449.784492
4438.128698
4458.862759
4454.363355
4409.109599
4336.948982
4442.096071
4444.795909
4467.781360
4424.834110
4417.549574
4414.062388
4433.005572
4406.060278
4441.566501
4436.892707
4432.976179
4428.372375
4441.886494
4430.818993
4396.091074
4450.308030
4461.063980
4422.945452
4450.285765
4402.863083
4390.497268
4472.461057
4428.154027
4460.629074
4413.282349
4446.757833
4449.067143
4431.767257
4435.965440
4399.095280
4419.852753
4368.679230
4352.657867
4448.820016
4427.431481
4406.022922
4453.683974
4432.829329
4467.349231
4430.667404
4416.964591
4425.173544
4430.574374
4430.471122
4400.377014
4440.403985
4424.565653
4404.709949
4451.714591
4428.546883
4454.703723
4444.794979
4399.915914
4424.707659
4422.828909
4429.298436
4406.488277
4359.849775
4453.365699
4452.487749
4432.018517
4450.969430
4436.741638
4432.232667
4426.000100
4439.730854
4455.815912
4458.243069
4436.391377
4438.103462
4412.896459
4414.194760
4441.768894
4422.132870
4422.445848
4429.413233
4429.088075
4429.426568
4429.713695
4429.779697
4430.080366
4430.162146
4430.600569
4430.808746
4431.280500
4431.298987
4431.300112
4430.929960
4430.029291
4424.841770
4428.868846
4428.757100
4429.479953
4429.895259
4430.148306
4430.490007
4430.433934
4430.463993
4429.973556
4429.936656
4429.831987
4430.279589
4430.844099
4430.493619
4426.571831
4428.584733
4428.412984
4428.686235
4429.239058
4428.896381
4429.593771
4429.394754
4430.226646
4430.629101
4431.329064
4431.163037
4430.829694
4430.363886
4429.189864
4427.362218
4428.647892
4428.872600
4429.041693
4429.682935
4429.688791
4430.185446
4429.838193
4430.074051
4428.968112
4429.048739
4428.402107
4429.009295
4428.852176
4429.829252
4428.202724
4428.641481
4428.757560
4428.521645
4429.003604
4428.467368
4429.241764
4428.751215
4429.847160
4429.773941
4431.112385
4429.954288
4430.757184
4427.703464
4428.207651
4428.322384
4428.722717
4429.179415
4428.650751
4429.830691
4429.103900
4430.120138
4429.214760
4429.782766
4428.371630
4428.456899
4427.788112
4428.414325
4427.412161
4430.267044
4428.345806
4428.775631
4428.810335
4428.534903
4428.726463
4428.360165
4428.780023
4428.559416
4429.267108
4429.564557
4430.469098
4429.961357
4429.599390
4428.076155
4428.529624
4428.404788
4429.059607
4428.774260
4428.962520
4429.251925
4429.267343
4429.502461
4429.215643
4429.202560
4428.242524
4428.172061
4427.307743
4428.747607
4427.855550
4427.350245
4428.170132
4428.857098
4428.653010
4428.431600
4428.543502
4428.144106
4428.507072
4428.247816
4429.018868
4429.303784
4430.282911
4430.352258
4429.931360
4428.524203
4430.889484
4428.397001
4428.933564
4428.726403
4428.858937
4428.991625
4429.129892
4429.149724
4429.059653
4428.740792
4428.268785
4427.797759
4427.554739
4429.239832
4429.001143
4429.316394
4427.959616
4428.821078
4428.431742
4428.311375
4428.263232
4427.996530
4428.081479
4427.983105
4428.661478
4429.006566
4430.125726
4430.260914
4430.021311
4429.945081
4429.980116
4427.978997
4428.861982
4428.495194
4428.635681
4428.817627
4428.728559
4428.924493
4428.624383
4428.550459
4427.830610
4427.449072
4427.410609
4428.436889
4429.653691
4430.447433
4427.911270
4428.675654
4428.251296
4428.314491
4427.776888
4427.999382
4427.535243
4427.954077
4427.914293
4428.985083
4429.216172
4429.766249
4429.433659
4428.969510
4430.445074
4417.715174
4401.138683
4422.665414
4436.908700
4409.902091
4446.529408
4431.846024
4437.308953
4399.503476
4461.862060
4411.601373
4404.189732
4413.672876
4440.961803
4430.636251
4418.778326
4427.826911
4428.696395
4428.342482
4428.335181
4428.594436
4428.461678
4428.539831
4428.360375
4428.112504
4427.067811
4426.998877
4426.403236
4427.100802
4427.568911
4429.278025
4431.477685
4412.372347
4427.952591
4439.027516
4412.478103
4440.317236
4434.898727
4337.647927
4425.499858
4383.098810
4399.509069
4459.705734
4407.937670
4464.677712
4395.103391
4402.845635
4427.369119
4428.334653
4428.232685
4427.788963
4427.908192
4427.109476
4427.807791
4426.746653
4427.901622
4427.880493
4428.841642
4428.354120
4428.504557
4426.895013
4428.243428
4433.307927
4450.572276
4415.099707
4438.005381
4404.239229
4442.252185
4419.499016
4394.500319
4430.082956
4457.777300
4429.345991
4439.597588
4404.829768
4421.555662
4412.130635
4447.876979
4427.540406
4428.273798
4428.435980
4427.733589
4428.529033
4427.909013
4428.251912
4427.853511
4427.756483
4426.203670
4426.648715
4425.036288
4426.354549
4424.258432
4427.065177
4424.862890
4409.053001
4404.733199
4384.112030
4410.512212
4444.139776
4436.130194
4449.052320
4423.032983
4404.264790
4429.557385
4428.372495
4393.101343
4388.374218
4428.586130
4442.722834
4427.056454
4428.277930
4427.930526
4427.540529
4427.618448
4426.820530
4427.404550
4426.541744
4427.255721
4427.749837
4427.845885
4427.490210
4427.228821
4424.281456
4423.785223
4431.214205
4428.851239
4435.258517
4463.216369
4455.378410
4432.892911
4439.194984
4429.022300
4409.808337
4451.400973
4447.455801
4459.246939
4400.883622
4420.802675
4432.858212
4415.379649
4427.089623
4428.422796
4427.731779
4428.097225
4427.680621
4428.053171
4427.787100
4427.715121
4427.476847
4425.706536
4426.028198
4424.804510
4424.726689
4424.574438
4423.094400
4425.828870
4399.165512
4451.768144
4435.302980
4486.099671
4384.483386
4438.650083
4426.550289
4446.804936
4401.430541
4385.518233
4453.658339
4412.921440
4439.174340
4444.321259
4421.976852
4427.126974
4428.087327
4427.955528
4427.200685
4427.531401
4426.945920
4426.950120
4426.898026
4426.530875
4428.004588
4427.018569
4427.577136
4426.149158
4425.084409
4425.401980
4443.177258
4439.848990
4447.150293
4389.097080
4348.969601
4436.254558
4424.951631
4423.402566
4447.510454
4430.137144
4413.118169
4469.292003
4457.568352
4409.972734
4475.813422
4392.240120
4426.927381
4428.240186
4427.705795
4427.878026
4427.852460
4427.637152
4428.037364
4427.314479
4427.472885
4425.486178
4426.033774
4424.683986
4425.469639
4425.295835
4424.947218
4434.385940
4416.102232
4450.025225
4399.824990
4407.580905
4474.614965
4417.818644
4421.105403
4431.381298
4402.128829
4460.690948
4379.159907
4434.850543
4450.713906
4438.835966
4444.572505
4426.905839
4428.048645
4427.780523
4427.285185
4427.448300
4426.918893
4427.190581
4426.280144
4427.122027
4427.062047
4427.862012
4427.246510
4427.431561
4426.036378
4426.773026
4419.983805
4434.747298
4401.854283
4432.236739
4446.928604
4429.990411
4426.242973
4420.169621
4399.724255
4460.550118
4403.621261
4372.176377
4439.791512
4473.868277
4425.730325
4395.533395
4426.890141
4428.018203
4427.988936
4427.354501
4428.226241
4427.288480
4427.775752
4427.496660
4426.756261
4425.758612
4425.844973
4424.620429
4426.298047
4425.213100
4428.096016
4434.768736
4443.931337
4435.743327
4446.677763
4371.198754
4415.598379
4430.986650
4427.358891
4403.711404
4437.086778
4391.437102
4429.129327
4345.022652
4458.179395
4472.132367
4429.467586
4426.918505
4428.134061
4427.550692
4427.668893
4427.065381
4426.859630
4427.055516
4425.755830
4426.779965
4427.015449
4427.228418
4427.718946
4426.122299
4425.263294
4424.604231
4438.721632
4439.232577
4430.886678
4433.597843
4443.472919
4424.940685
4454.185423
4488.162857
4388.187075
4408.048551
4448.698169
4452.984784
4446.943034
4443.701350
4406.557276
4382.785795
4427.087348
4428.021540
4427.925115
4427.282970
4427.808759
4427.190722
4427.257408
4427.281042
4426.918211
4425.350037
4426.435897
4424.082635
4425.822360
4424.830819
4423.377272
4447.976554
4420.471546
4453.600265
4433.864328
4403.025390
4420.975263
4436.702552
4397.667280
4477.319991
4409.546130
4435.379348
4384.928222
4416.906849
4402.850504
4417.106430
4457.450384
4427.008384
4427.893368
4428.005105
4426.825724
4427.664654
4426.074755
4427.403149
4425.923694
4426.747306
4427.611772
4426.955718
4427.564680
4425.898095
4425.113532
4426.581599
4425.401988
4415.778658
4450.337172
4401.015275
4390.746884
4454.526550
4422.762676
4429.844269
4389.558642
4427.212044
4442.498863
4448.114486
4442.021949
4405.584476
4494.736036
4462.864535
4427.229210
4428.323967
4427.435840
4428.072022
4427.136363
4427.940334
4427.488008
4427.392280
4427.613844
4424.875423
4426.183637
4423.984959
4425.989836
4424.239040
4426.569431
4434.273684
4432.339654
4422.053041
4446.636420
4434.894257
4420.130561
4474.575335
4459.653970
4388.739382
4436.997104
4445.294314
4443.689414
4415.771411
4414.100515
4424.520916
4449.469132
4426.954668
4428.058039
4427.992145
4427.025455
4427.789920
4426.899973
4427.047238
4426.615087
4426.060890
4427.056705
4426.889904
4426.660016
4426.033231
4425.728417
4424.430845
4429.799828
4436.002606
4426.845902
4428.720237
4450.671963
4449.209214
4481.262053
4499.758936
4446.478468
4437.854121
4388.628109
4401.777287
4433.875085
4434.572485
4414.725266
4413.550384
4427.332600
4428.061126
4428.093281
4427.525862
4428.267278
4427.188049
4428.206548
4426.824634
4427.603049
4425.653754
4425.531127
4425.287456
4424.891639
4425.409531
4425.708603
4430.605345
4435.325887
4441.094461
4416.827228
4367.992432
4433.150882
4663.999815
4460.121511
4431.361322
4445.808718
4450.103643
4429.755269
4452.599369
4399.884419
4464.169232
4424.234659
4427.356567
4428.347765
4427.780697
4428.145325
4427.132534
4427.902857
4426.997120
4427.237000
4426.773653
4427.144603
4427.778370
4426.754192
4426.635137
4425.022867
4426.126940
4412.678885
4427.957748
4419.243091
4485.482834
4397.231557
4426.638648
4497.912348
4479.359489
4507.916086
4449.996145
4465.267437
4419.380087
4429.418365
4430.757267
4386.837352
4422.074994
4427.349671
4428.159789
4428.196410
4427.169565
4428.345361
4426.979314
4427.867153
4426.962880
4426.744578
4425.280226
4425.572062
4423.403977
4426.219754
4424.255256
4424.101544
4432.770945
4414.293526
4419.187061
4444.159173
4375.069135
4404.215098
4475.075412
4462.937017
4463.601289
4422.745272
4397.737645
4429.690681
4465.221301
4456.715707
4461.643557
4427.287128
4427.525014
4427.803837
4428.527086
4426.808457
4427.857613
4425.670120
4427.431210
4424.592007
4426.028983
4425.972283
4426.522659
4427.539408
4424.963995
4423.107348
4427.683292
4433.170374
4389.943518
4456.157792
4452.598654
4387.203384
4436.576575
4444.869182
4432.790232
4443.911574
4419.866226
4433.333346
4431.611402
4406.189251
4434.060584
4382.107956
4422.030753
4427.711990
4428.323974
4427.824491
4427.628937
4427.068988
4427.379516
4427.283215
4427.367660
4427.726328
4426.494278
4427.323946
4423.828967
4426.291493
4422.632710
4422.637592
4430.552479
4448.958149
4421.422071
4405.660607
4409.981461
4450.918758
4768.924610
4464.598685
4447.685947
4469.883228
4443.362285
4404.305014
4401.946120
4432.782947
4353.155484
4425.740235
4427.740361
4427.940485
4428.451480
4426.725658
4428.478422
4426.882469
4428.265558
4426.985438
4428.042030
4427.588374
4428.241348
4426.311857
4424.279044
4424.392821
4422.301253
4431.410691
4447.247934
4450.774429
4426.185116
4449.334490
4448.005433
4494.818981
4438.193464
4375.499205
4447.813431
4457.091479
4410.605435
4446.357453
4414.549616
4514.972739
4424.931168
4427.673535
4428.015258
4428.667762
4427.558433
4428.599588
4427.167397
4428.473796
4426.777055
4428.381928
4425.010361
4424.969866
4423.673872
4424.993247
4422.291027
4425.238529
4423.587343
4421.390549
4446.313934
4416.138941
4433.747176
4492.151182
4458.825504
4471.570444
4464.145594
4444.739678
4454.384350
4447.809870
4435.304291
4422.221561
4351.223755
4434.103102
4428.128551
4428.798764
4427.924618
4428.497602
4427.342520
4428.030879
4426.669847
4426.905526
4426.020938
4425.747000
4425.862726
4423.433686
4424.680818
4422.869732
4424.516565
4433.532933
4425.723522
4435.251488
4427.532060
4442.617731
4412.830578
4512.259721
4490.581280
4451.518239
4419.039202
4432.778320
4455.826328
4440.893418
4388.341110
4388.820773
4411.064839