# vtk DataFile Version 2.0
mfree iwf
ASCII

DATASET UNSTRUCTURED_GRID
POINTS 8571 float
0.000001 0.000445 0.000000
0.000001 0.000450 0.000000
0.000001 0.000455 0.000000
0.000001 0.000460 0.000000
0.000001 0.000465 0.000000
0.000001 0.000470 0.000000
0.000001 0.000475 0.000000
0.000001 0.000480 0.000000
0.000001 0.000486 0.000000
0.000001 0.000490 0.000000
0.000001 0.000496 0.000000
0.000003 0.000500 0.000000
0.000125 0.000556 0.000000
0.000125 0.000564 0.000000
0.000125 0.000579 0.000000
0.000125 0.000586 0.000000
0.000125 0.000586 0.000000
0.000125 0.000591 0.000000
0.000125 0.000598 0.000000
0.000125 0.000602 0.000000
0.000125 0.000613 0.000000
0.000125 0.000628 0.000000
0.000125 0.000634 0.000000
0.000126 0.000638 0.000000
0.000127 0.000643 0.000000
0.000129 0.000649 0.000000
0.000130 0.000652 0.000000
0.000131 0.000658 0.000000
0.000132 0.000662 0.000000
0.000134 0.000668 0.000000
0.000135 0.000675 0.000000
0.000143 0.000702 0.000000
0.000006 0.000445 0.000000
0.000006 0.000450 0.000000
0.000006 0.000455 0.000000
0.000006 0.000460 0.000000
0.000006 0.000465 0.000000
0.000006 0.000470 0.000000
0.000006 0.000476 0.000000
0.000006 0.000480 0.000000
0.000006 0.000486 0.000000
0.000007 0.000490 0.000000
0.000005 0.000496 0.000000
0.000007 0.000499 0.000000
0.000126 0.000576 0.000000
0.000131 0.000586 0.000000
0.000127 0.000608 0.000000
0.000127 0.000613 0.000000
0.000128 0.000618 0.000000
0.000128 0.000623 0.000000
0.000128 0.000627 0.000000
0.000129 0.000631 0.000000
0.000131 0.000638 0.000000
0.000132 0.000643 0.000000
0.000134 0.000650 0.000000
0.000135 0.000656 0.000000
0.000138 0.000663 0.000000
0.000138 0.000670 0.000000
0.000139 0.000674 0.000000
0.000140 0.000678 0.000000
0.000140 0.000688 0.000000
0.000140 0.000692 0.000000
0.000139 0.000688 0.000000
0.000142 0.000699 0.000000
0.000011 0.000445 0.000000
0.000012 0.000450 0.000000
0.000010 0.000456 0.000000
0.000012 0.000460 0.000000
0.000010 0.000466 0.000000
0.000012 0.000470 0.000000
0.000011 0.000476 0.000000
0.000012 0.000480 0.000000
0.000010 0.000486 0.000000
0.000012 0.000490 0.000000
0.000010 0.000497 0.000000
0.000012 0.000498 0.000000
0.000131 0.000576 0.000000
0.000133 0.000584 0.000000
0.000131 0.000595 0.000000
0.000130 0.000599 0.000000
0.000130 0.000604 0.000000
0.000130 0.000609 0.000000
0.000132 0.000613 0.000000
0.000132 0.000621 0.000000
0.000135 0.000626 0.000000
0.000133 0.000633 0.000000
0.000137 0.000637 0.000000
0.000136 0.000645 0.000000
0.000140 0.000646 0.000000
0.000142 0.000653 0.000000
0.000139 0.000658 0.000000
0.000141 0.000666 0.000000
0.000143 0.000681 0.000000
0.000143 0.000685 0.000000
0.000143 0.000694 0.000000
0.000147 0.000699 0.000000
0.000015 0.000445 0.000000
0.000017 0.000450 0.000000
0.000015 0.000455 0.000000
0.000017 0.000460 0.000000
0.000015 0.000466 0.000000
0.000017 0.000471 0.000000
0.000015 0.000476 0.000000
0.000017 0.000480 0.000000
0.000015 0.000485 0.000000
0.000018 0.000489 0.000000
0.000015 0.000496 0.000000
0.000018 0.000498 0.000000
0.000026 0.000500 0.000000
0.000132 0.000590 0.000000
0.000135 0.000599 0.000000
0.000136 0.000604 0.000000
0.000138 0.000614 0.000000
0.000132 0.000619 0.000000
0.000140 0.000623 0.000000
0.000136 0.000630 0.000000
0.000141 0.000635 0.000000
0.000138 0.000641 0.000000
0.000144 0.000649 0.000000
0.000138 0.000652 0.000000
0.000143 0.000660 0.000000
0.000145 0.000666 0.000000
0.000145 0.000671 0.000000
0.000145 0.000675 0.000000
0.000147 0.000678 0.000000
0.000149 0.000687 0.000000
0.000147 0.000691 0.000000
0.000151 0.000698 0.000000
0.000020 0.000445 0.000000
0.000022 0.000450 0.000000
0.000020 0.000456 0.000000
0.000022 0.000460 0.000000
0.000019 0.000465 0.000000
0.000022 0.000469 0.000000
0.000020 0.000475 0.000000
0.000023 0.000480 0.000000
0.000020 0.000486 0.000000
0.000022 0.000491 0.000000
0.000022 0.000498 0.000000
0.000023 0.000499 0.000000
0.000040 0.000500 0.000000
0.000141 0.000588 0.000000
0.000140 0.000595 0.000000
0.000140 0.000600 0.000000
0.000138 0.000609 0.000000
0.000140 0.000610 0.000000
0.000140 0.000619 0.000000
0.000140 0.000628 0.000000
0.000143 0.000630 0.000000
0.000143 0.000639 0.000000
0.000148 0.000642 0.000000
0.000150 0.000651 0.000000
0.000146 0.000656 0.000000
0.000150 0.000661 0.000000
0.000149 0.000666 0.000000
0.000153 0.000677 0.000000
0.000150 0.000682 0.000000
0.000153 0.000688 0.000000
0.000152 0.000692 0.000000
0.000154 0.000697 0.000000
0.000025 0.000445 0.000000
0.000027 0.000450 0.000000
0.000025 0.000455 0.000000
0.000027 0.000459 0.000000
0.000026 0.000466 0.000000
0.000027 0.000471 0.000000
0.000024 0.000476 0.000000
0.000027 0.000480 0.000000
0.000025 0.000485 0.000000
0.000027 0.000490 0.000000
0.000027 0.000492 0.000000
0.000028 0.000500 0.000000
0.000125 0.000570 0.000000
0.000137 0.000588 0.000000
0.000134 0.000594 0.000000
0.000141 0.000605 0.000000
0.000145 0.000607 0.000000
0.000141 0.000617 0.000000
0.000147 0.000618 0.000000
0.000146 0.000623 0.000000
0.000147 0.000633 0.000000
0.000148 0.000636 0.000000
0.000145 0.000645 0.000000
0.000150 0.000647 0.000000
0.000149 0.000656 0.000000
0.000154 0.000667 0.000000
0.000151 0.000671 0.000000
0.000156 0.000672 0.000000
0.000154 0.000683 0.000000
0.000158 0.000680 0.000000
0.000158 0.000691 0.000000
0.000159 0.000696 0.000000
0.000031 0.000445 0.000000
0.000031 0.000450 0.000000
0.000030 0.000457 0.000000
0.000034 0.000462 0.000000
0.000029 0.000465 0.000000
0.000032 0.000469 0.000000
0.000031 0.000474 0.000000
0.000032 0.000480 0.000000
0.000031 0.000486 0.000000
0.000032 0.000492 0.000000
0.000034 0.000498 0.000000
0.000032 0.000499 0.000000
0.000050 0.000500 0.000000
0.000138 0.000582 0.000000
0.000146 0.000597 0.000000
0.000146 0.000600 0.000000
0.000148 0.000612 0.000000
0.000149 0.000615 0.000000
0.000149 0.000624 0.000000
0.000149 0.000629 0.000000
0.000154 0.000632 0.000000
0.000153 0.000642 0.000000
0.000156 0.000645 0.000000
0.000154 0.000655 0.000000
0.000158 0.000658 0.000000
0.000155 0.000662 0.000000
0.000158 0.000664 0.000000
0.000156 0.000674 0.000000
0.000163 0.000682 0.000000
0.000159 0.000686 0.000000
0.000162 0.000690 0.000000
0.000164 0.000695 0.000000
0.000036 0.000445 0.000000
0.000036 0.000450 0.000000
0.000038 0.000455 0.000000
0.000034 0.000456 0.000000
0.000035 0.000466 0.000000
0.000038 0.000472 0.000000
0.000034 0.000476 0.000000
0.000039 0.000482 0.000000
0.000035 0.000484 0.000000
0.000036 0.000489 0.000000
0.000039 0.000492 0.000000
0.000037 0.000499 0.000000
0.000125 0.000549 0.000000
0.000125 0.000568 0.000000
0.000147 0.000592 0.000000
0.000150 0.000603 0.000000
0.000148 0.000608 0.000000
0.000154 0.000612 0.000000
0.000152 0.000621 0.000000
0.000156 0.000624 0.000000
0.000153 0.000636 0.000000
0.000158 0.000636 0.000000
0.000155 0.000649 0.000000
0.000160 0.000647 0.000000
0.000159 0.000654 0.000000
0.000162 0.000666 0.000000
0.000162 0.000671 0.000000
0.000165 0.000674 0.000000
0.000162 0.000677 0.000000
0.000166 0.000683 0.000000
0.000167 0.000689 0.000000
0.000168 0.000694 0.000000
0.000041 0.000445 0.000000
0.000041 0.000450 0.000000
0.000039 0.000460 0.000000
0.000043 0.000457 0.000000
0.000041 0.000465 0.000000
0.000040 0.000469 0.000000
0.000043 0.000475 0.000000
0.000039 0.000477 0.000000
0.000042 0.000487 0.000000
0.000043 0.000492 0.000000
0.000043 0.000497 0.000000
0.000046 0.000498 0.000000
0.000125 0.000513 0.000000
0.000133 0.000579 0.000000
0.000148 0.000587 0.000000
0.000158 0.000598 0.000000
0.000154 0.000608 0.000000
0.000155 0.000616 0.000000
0.000158 0.000619 0.000000
0.000156 0.000628 0.000000
0.000160 0.000630 0.000000
0.000158 0.000639 0.000000
0.000162 0.000642 0.000000
0.000164 0.000652 0.000000
0.000163 0.000657 0.000000
0.000167 0.000660 0.000000
0.000165 0.000665 0.000000
0.000167 0.000670 0.000000
0.000169 0.000678 0.000000
0.000171 0.000683 0.000000
0.000171 0.000688 0.000000
0.000173 0.000693 0.000000
0.000045 0.000445 0.000000
0.000047 0.000450 0.000000
0.000045 0.000455 0.000000
0.000046 0.000461 0.000000
0.000045 0.000466 0.000000
0.000047 0.000469 0.000000
0.000047 0.000478 0.000000
0.000044 0.000481 0.000000
0.000051 0.000484 0.000000
0.000046 0.000486 0.000000
0.000049 0.000493 0.000000
0.000051 0.000498 0.000000
0.000125 0.000519 0.000000
0.000128 0.000569 0.000000
0.000142 0.000593 0.000000
0.000155 0.000602 0.000000
0.000158 0.000607 0.000000
0.000160 0.000616 0.000000
0.000162 0.000624 0.000000
0.000165 0.000628 0.000000
0.000164 0.000637 0.000000
0.000168 0.000640 0.000000
0.000165 0.000646 0.000000
0.000167 0.000655 0.000000
0.000169 0.000650 0.000000
0.000171 0.000663 0.000000
0.000172 0.000668 0.000000
0.000172 0.000673 0.000000
0.000174 0.000677 0.000000
0.000175 0.000682 0.000000
0.000176 0.000687 0.000000
0.000178 0.000692 0.000000
0.000050 0.000445 0.000000
0.000052 0.000450 0.000000
0.000050 0.000456 0.000000
0.000053 0.000459 0.000000
0.000050 0.000465 0.000000
0.000053 0.000471 0.000000
0.000049 0.000474 0.000000
0.000052 0.000478 0.000000
0.000050 0.000488 0.000000
0.000054 0.000491 0.000000
0.000059 0.000493 0.000000
0.000054 0.000499 0.000000
0.000125 0.000542 0.000000
0.000135 0.000566 0.000000
0.000139 0.000577 0.000000
0.000153 0.000597 0.000000
0.000161 0.000605 0.000000
0.000163 0.000612 0.000000
0.000166 0.000617 0.000000
0.000164 0.000621 0.000000
0.000170 0.000631 0.000000
0.000165 0.000633 0.000000
0.000169 0.000643 0.000000
0.000173 0.000647 0.000000
0.000174 0.000656 0.000000
0.000172 0.000659 0.000000
0.000176 0.000664 0.000000
0.000177 0.000669 0.000000
0.000177 0.000674 0.000000
0.000180 0.000680 0.000000
0.000181 0.000686 0.000000
0.000183 0.000690 0.000000
0.000055 0.000445 0.000000
0.000057 0.000450 0.000000
0.000055 0.000454 0.000000
0.000057 0.000461 0.000000
0.000054 0.000465 0.000000
0.000058 0.000469 0.000000
0.000058 0.000477 0.000000
0.000059 0.000482 0.000000
0.000054 0.000483 0.000000
0.000057 0.000487 0.000000
0.000057 0.000497 0.000000
0.000061 0.000497 0.000000
0.000125 0.000546 0.000000
0.000126 0.000573 0.000000
0.000134 0.000575 0.000000
[...]
POINT_DATA 8571
SCALARS density float 1
LOOKUP_TABLE default
4428.113347
4429.806109
4426.340716
4422.646169
4422.154250
4427.807109
4439.300097
4432.472899
4443.314125
4425.887429
4434.376230
4397.192507
4585.629214
4443.413075
4552.759792
4455.893220
4449.143467
4536.209560
4474.376851
4530.579698
4604.298452
4431.717025
4409.660216
4423.075382
4429.612949
4416.564377
4433.355216
4425.412103
4433.238010
4427.624356
4449.859974
4427.843775
4422.809634
4425.695334
4423.663951
4432.215612
4442.033668
4417.947810
4421.364059
4424.005899
4407.243312
4416.560047
4446.833988
4398.551244
4393.291514
4457.993044
4387.904999
4391.336945
4361.294849
4373.205975
4419.948863
4432.010025
4428.184524
4406.160538
4415.520098
4400.766872
4434.843020
4398.854888
4399.264292
4397.345130
4438.089434
4388.814299
4440.961748
4455.855902
4422.666531
4417.977126
4445.416968
4403.652114
4436.662996
4411.357105
4456.039254
4380.918419
4482.826371
4360.772800
4480.634553
4405.873098
4470.409086
4458.868102
4424.129757
4432.270203
4403.002140
4491.223105
4445.761876
4502.659793
4385.983215
4406.257371
4402.832882
4425.885099
4383.177070
4423.557995
4421.147344
4424.301338
4404.256018
4463.960528
4414.943369
4413.937957
4429.407153
4437.642479
4429.616370
4441.440415
4443.461309
4414.278929
4462.003193
4383.276873
4476.398427
4376.908081
4525.897175
4396.474316
4433.086230
4426.424213
4495.562861
4435.396847
4376.668002
4468.265948
4388.943346
4452.972225
4419.599802
4448.252848
4413.717836
4452.098042
4371.026807
4475.639927
4408.557429
4495.023188
4451.722961
4382.207261
4472.539755
4440.191706
4428.943400
4429.392204
4437.637308
4420.748423
4433.180435
4433.052332
4431.287170
4439.457069
4471.336930
4360.246130
4467.014726
4429.346108
4414.362216
4432.686650
4451.321457
4403.359867
4446.751675
4446.246865
4434.418443
4458.533576
4428.361164
4408.581675
4436.856890
4421.846321
4461.641818
4407.656671
4447.087166
4420.826258
4402.778129
4469.675608
4379.094890
4440.399168
4432.056930
4429.763251
4433.922657
4426.061277
4447.106570
4420.004429
4437.867535
4415.735980
4404.357289
4476.908079
4435.279530
4422.819289
4468.433774
4456.437970
4443.429381
4443.474398
4446.241929
4456.877518
4441.807666
4438.827120
4447.887667
4445.317232
4448.224330
4442.916515
4455.521236
4457.589496
4356.020652
4457.524580
4459.095835
4416.324277
4420.806997
4431.939233
4436.775785
4425.634157
4414.408669
4426.561781
4426.477369
4415.530545
4434.700095
4414.913516
4430.809545
4376.984329
4473.015561
4413.556060
4428.669316
4449.055746
4448.472092
4483.765460
4416.451201
4416.576110
4442.103217
4399.494148
4427.080805
4394.975354
4458.103810
4403.975808
4438.414546
4423.938788
4416.304698
4466.407599
4453.766121
4411.078314
4418.317351
4434.394918
4439.856102
4434.941315
4405.549986
4439.519648
4445.500888
4433.736228
4437.368893
4394.889245
4437.142227
4430.805669
4427.804248
4449.370355
4538.518389
4456.318501
4431.840477
4418.679023
4493.034565
4462.365050
4438.064119
4438.404946
4436.529710
4441.441177
4447.398971
4421.853138
4428.317490
4411.456338
4409.537971
4440.155373
4391.095267
4435.380461
4409.297458
4433.495220
4425.320930
4437.635502
4425.621754
4445.902206
4425.958283
4423.899590
4424.877055
4430.091907
4461.891571
4403.324353
4432.817592
4424.491013
4702.253402
4431.502466
4460.130379
4443.473050
4445.501785
4456.190716
4468.515878
4443.568519
4439.715439
4459.337539
4434.047268
4451.686256
4422.852638
4409.114503
4440.577368
4455.433417
4404.834487
4425.281122
4410.702149
4434.988102
4430.532449
4420.471690
4428.153076
4416.407374
4444.697680
4426.630310
4425.522897
4441.020517
4448.738267
4395.986506
4465.612818
4440.795051
4545.814507
4528.411007
4467.543848
4472.134619
4466.382247
4456.792648
4451.446148
4449.633342
4434.444128
4447.914484
4440.666024
4420.796540
4442.463688
4426.375273
4406.038380
4417.217602
4436.612210
4447.026854
4430.327769
4416.683650
4431.797350
4427.037540
4416.759336
4434.693579
4417.275719
4412.674332
4458.234944
4382.788215
4430.274883
4413.933606
4568.541527
4391.442369
4622.059795
4442.660968
4431.885563
4450.397595
4462.093726
4410.609154
4474.321703
4440.272150
4451.660054
4448.962696
4430.868659
4420.199668
4445.826233
4454.552671
4441.270886
4456.621244
4433.263141
4407.968488
4419.705059
4420.102138
4435.748265
4421.834026
4427.272209
4422.298897
4425.806182
4425.207424
4426.430597
4418.917428
4486.832168
4364.339694
4389.017336
4387.306474
4421.860744
4377.408727
4469.284241
4441.877622
4462.728582
4476.656393
4455.891846
4451.415642
4441.482146
4464.281181
4458.051990
4442.262119
4433.768026
4417.030998
4430.968718
4407.348907
4438.209662
4435.580647
4421.876009
4424.143203
4427.966011
4411.079200
4419.754936
4413.119537
4417.816657
4419.960116
4461.114752
4399.842989
4467.673953
4402.083964
4448.442291
4438.810571
4410.120442
4352.613032
4444.220686
4458.365138
4427.628081
4426.069250
4460.126715
4445.987342
4443.613822
4449.125085
4431.882747
4451.952015
4437.882227
4432.786232
4449.623858
4452.774558
4431.918169
4413.910569
4413.581825
4416.490222
4443.143893
4427.640707
4434.729702
4423.969217
4441.272482
4399.699954
4466.598004
4424.232445
4446.836726
4368.907686
4451.439143
4426.747762
4580.629407
4453.396380
4450.005251
4466.975008
4444.706941
4448.714969
4458.552455
4449.509573
4447.566846
4454.969808
4441.742279
4422.036312
4426.273751
4457.106271
4409.764108
4424.999649
4441.711771
4419.606206
4427.875750
4416.777192
4422.855006
4423.391325
4409.486634
4415.015924
4420.152471
4418.405865
4441.209767
4375.613451
4444.845871
4458.567999
4440.024172
4450.191507
4568.298793
4405.739683
4509.921168
4476.001414
4490.118477
4447.627400
4483.182372
4454.483899
4474.624960
4440.730297
4444.272675
4447.548830
4443.735748
4427.604864
4449.528356
4436.550749
4436.728006
4411.660835
4419.256343
4419.512501
4444.456364
4434.031531
4429.392219
4441.109154
4423.753339
4421.208309
4418.246466
4431.860586
4435.111261
4344.310788
4440.469947
4446.115233
4423.922851
4423.678688
4461.949026
4432.022177
4467.931825
4446.986240
4424.885641
4429.846311
4429.309565
4472.793405
4440.445396
4444.049463
4464.131541
4443.255500
4463.362650
4406.182653
4428.425181
4426.225803
4408.458173
4419.378858
4424.699149
4421.991591
4422.375493
4420.770170
4412.752404
4438.268617
4412.950925
4403.733986
4400.817512
4513.729657
4380.259533
4426.235088
4414.719944
4440.565991
4470.946593
4454.412343
4452.186312
4435.522200
4412.526399
4443.444194
4425.888314
4425.882996
4473.472334
4466.104477
4432.590661
4436.675312
4417.052885
4453.858695
4426.741503
4424.784957
4416.424543
4414.218620
4445.227153
4427.098524
4434.779743
4429.297056
4430.823470
4406.572231
4433.563507
4442.367308
4411.505480
4417.579900
4439.800641
4455.613399
4522.442659
4506.674106
4635.462075
4459.811959
4447.887715
4413.325671
4471.929072
4475.832984
4499.498837
4485.730500
4440.475706
4457.853118
4449.597578
4446.939821
4430.697960
4448.646885
4413.148512
4428.544127
4424.714946
4413.819620
4425.194633
4427.172326
4426.142601
4426.758418
4432.373605
4442.159867
4427.981053
4425.186333
4450.670934
4446.243218
4386.821986
4426.459892
4411.029852
4407.009591
4443.635936
4505.192917
4506.817329
4416.058730
4461.227823
4442.300450
4477.844265
4415.772719
4441.551397
4412.055700
4463.931551
4434.031205
4445.356086
4401.694781
4444.882620
4415.738991
4411.018067
4417.572122
4444.973546
4430.235426
4433.433109
4425.333214
4422.933162
4432.309294
4410.842075
4430.900347
4432.262275
4417.152136
4426.176705
4434.261446
4395.717439
4507.019634
4433.364782
4481.881300
4462.856045
4475.881354
4403.679393
4443.372677
4411.031968
4419.188260
4473.246052
4448.275005
4447.662326
4436.130632
4452.619160
4439.515792
4444.914199
4419.820151
4416.919170
4420.087998
4416.115969
4419.223157
4429.281265
4435.254260
4420.275690
4405.642704
4435.550770
4409.426234
4436.433958
4473.895298
4391.459312
4558.954674
4480.976191
4488.899227
4500.784447
4481.989405
4525.126384
4486.192550
4431.458465
4459.172039
4395.189257
4466.781574
4479.635722
4448.720286
4442.129347
4455.964595
4432.801487
4442.409850
4403.727641
4418.474502
4431.588821
4411.451131
4448.896943
4433.970997
4425.943895
4419.624647
4438.346271
4419.276686
4440.930682
4392.661765
4461.455666
4380.472343
4372.836054
4337.482112
4473.194407
4488.087573
4512.550636
4515.725947
4479.361153
4481.025946
4441.145987
4441.967487
4440.806155
4395.791393
4402.130063
4456.305241
4417.333169
4445.375420
4450.668536
4433.014486
4451.181257
4416.938306
4418.768680
4414.807808
4415.884812
4422.528327
4435.988637
4429.547227
4419.960401
4409.232219
4442.718737
4415.952351
4474.179776
4381.731653
4401.432690
4586.938625
4503.771037
4505.635655
4482.305324
4466.323933
4499.581907
4446.609865
4456.304100
4469.137010
4466.108206
4439.393958
4433.850492
4411.605465
4448.390570
4429.325073
4463.269550
4417.198031
4447.736430
4417.593831
4418.316097
4420.867077
4450.513124
4440.414555
4423.851514
4426.763628
4432.241622
4434.374504
4420.496811
4434.161999
4474.381893
4388.599587
4438.501538
4488.710348
4475.402053
4476.880759
4483.988438
4488.270209
4449.136445
4479.546461
4470.845931
4443.985097
4468.680253
4478.178066
4438.176928
4444.490775
4449.936111
4451.566380
4414.440890
4494.248988
4413.160308
4415.017487
4426.322944
4419.675234
4400.583039
4424.921791
4424.030089
4424.943970
4426.017892
4426.195656
4426.925678
4427.117385
4427.670390
4427.779406
4428.297709
4428.315202
4428.617164
4428.616088
4429.225535
4407.134021
4422.056742
4421.842506
4423.325882
4424.562239
4424.915013
4425.984333
4426.055173
4426.939914
4427.004150
4427.755130
4427.743106
4428.126080
4427.908192
4431.109785
4412.679494
4422.342882
4421.446698
4423.172244
4424.601081
4424.635168
4426.026670
4425.855498
4427.123455
4426.731583
4427.934806
4427.405492
4428.424104
4428.207232
4429.913582
4415.731732
4423.466720
4422.357808
4423.830026
4424.578312
4425.149758
4426.068384
4426.110273
4427.076972
4426.964383
4427.888303
4427.597601
4428.837309
4428.221319
4431.043190
4418.989938
4424.133342
4423.489605
4424.190131
4425.099121
4425.341941
4426.175819
4426.390932
4427.141341
4427.177800
4427.924495
4427.696863
4428.865505
4428.137912
4430.823555
4420.561754
4424.939122
4424.373660
4424.628366
4425.754527
4425.517346
4426.766772
4426.388253
4427.504382
4427.185975
4428.169046
4427.891826
4428.575074
4427.751372
4430.303641
4422.083573
4425.615830
4425.102235
4425.283170
4426.073134
4425.969986
4426.905314
4426.704867
4427.727607
4427.436714
4428.295150
4427.918503
4428.736252
4427.320402
4428.907959
4423.289473
4426.258827
4425.680823
4425.843014
4426.506583
4426.455485
4427.153896
4427.175351
4427.765014
4427.744681
4428.555746
4428.055439
4429.271332
4427.544176
4428.917396
4424.248665
4426.758404
4426.247016
4426.358411
4426.856457
4426.766043
4427.495217
4427.279769
4428.180347
4428.021662
4428.681872
4428.716670
4429.198825
4428.925154
4429.529115
4425.263715
4427.227314
4426.701708
4426.844947
4427.172031
4427.306703
4427.589316
4427.905350
4428.121391
4428.448363
4428.852496
4429.217425
4429.804483
4429.655867
4430.334229
4425.803224
4427.671797
4427.040439
4427.321069
4427.396748
4427.617671
4427.790157
4428.103001
4428.289376
4428.840929
4428.997139
4429.440339
4430.212995
4430.213052
4430.937507
4426.484158
4427.991288
4427.410229
4427.635709
4427.771744
4427.854323
4428.177559
4428.192559
4428.756641
4428.621282
4429.408143
4429.622691
4430.406762
4430.555385
4431.243160
4427.100804
4428.148117
4427.930054
4427.796416
4428.085431
4428.033798
4428.302767
4428.427528
4428.720941
4429.038401
4429.438659
4429.562555
4430.487944
4430.881515
4431.317867
4443.061707
4416.968565
4428.161500
4444.142477
4445.669858
4439.519643
4448.571163
4479.221810
4467.452426
4470.195771
4449.321770
4437.584442
4472.267181
4429.901087
4411.305912
4407.216078
4427.498019
4428.435996
4428.117261
4428.117756
4428.321788
4428.268030
4428.520226
4428.615087
4428.871352
4429.007752
4429.287176
4429.903647
4430.129651
4430.932691
4432.549973
4434.728394
4439.300803
4452.389407
4422.837681
4458.981497
4479.127913
4488.167335
4460.055542
4471.275726
4443.836257
4443.291694
4450.643548
4470.571933
4466.513770
4380.366150
4408.346440
4427.701896
4428.616794
4428.411351
4428.302153
4428.482197
4428.415303
4428.661111
4428.571778
4428.997896
4428.936290
4429.599083
4429.351454
4430.146690
4430.329347
4430.337726
4444.184259
4435.747895
4384.745798
4444.064872
4441.138181
4446.510374
4470.188211
4466.378602
4461.690012
4456.339068
4455.712191
4446.583639
4400.216662
4461.840897
4362.055441
4405.405488
4428.001140
4428.817396
4428.606373
4428.468110
4428.777123
4428.540117
4428.811463
4428.788251
4429.026183
4428.951008
4429.339547
4429.228006
4430.402770
4429.407213
4432.154143
4424.632099
4442.480500
4422.976978
4444.656288
4444.138448
4463.005804
4428.475319
4478.430582
4454.893161
4467.872836
4480.558211
4485.906639
4423.502329
4403.965668
4424.530384
4407.273499
4428.213193
4428.987294
4428.780272
4428.741564
4428.761941
4428.738786
4428.868278
4428.751919
4428.929598
4428.963236
4429.080165
4429.125999
4428.865495
4429.088498
4428.609329
4425.076064
4426.232694
4402.891927
4449.474892
4436.570536
4454.342615
4466.509050
4465.575760
4436.507002
4452.501095
4466.442961
4472.850530
4427.554408
4375.169261
4407.675729
4413.701555
4428.405773
4429.191485
4428.882025
4428.929255
4428.893248
4429.024184
4428.794752
4429.094682
4428.963307
4428.900011
4428.910459
4428.390526
4429.149300
4427.671219
4424.893290
4435.506857
4453.186844
4395.037729
4429.150909
4430.031970
4426.743049
4431.068544
4418.064710
4465.008604
4470.602625
4460.534726
4444.965185
4460.882586
4442.779923
4439.997587
4417.867141
4428.520880
4429.351262
4429.003973
4429.137851
4428.970191
4429.059586
4428.965253
4429.073186
4428.737543
4429.261937
4428.339762
4429.262093
4426.716330
4428.802799
4426.674519
4444.458267
4411.311470
4440.671843
4460.167569
4453.102946
4449.682750
4453.335293
4429.580096
4432.092672
4428.459300
4464.113827
4451.079422
4433.857221
4460.119115
4453.644588
4399.989907
4428.635429
4429.495785
4429.099172
4429.294558
4429.075253
4429.361361
4428.954780
4429.300225
4429.013980
4429.042924
4428.793548
4428.560415
4428.856945
4428.057944
4426.817101
4404.126866
4432.987997
4438.516222
4396.794051
4454.567525
4439.347751
4452.764083
4446.728730
4456.655291
4439.585153
4450.240228
4441.098416
4452.879775
4463.465762
4448.512603
4403.190495
4428.794477
4429.489552
4429.375530
4429.295020
4429.333161
4429.283988
4429.249534
4429.264110
4429.146656
4429.114539
4429.085118
4428.992668
4428.368354
4428.735319
4430.197572
4457.532650
4425.917437
4430.462761
4419.272684
4443.509069
4401.293855
4451.561900
4439.074136
4442.204427
4417.075376
4415.570197
4471.239218
4460.140271
4453.250428
4465.783579
4409.828708
4428.968533
4429.553822
4429.561486
4429.374825
4429.588132
4429.364703
4429.542083
4429.318570
4429.382892
4429.385171
4428.979172
4429.098680
4429.264496
4429.641924
4430.070299
4414.164419
4432.268766
4430.456000
4413.718974
4434.356829
4432.642652
4439.025749
4439.348565
4448.209657
4461.723442
4444.388579
4425.860649
4468.602855
4469.155000
4403.482122
4454.763575
4429.118999
4429.658311
4429.690627
4429.537398
4429.640632
4429.623851
4429.509061
4429.591272
4429.576241
4429.194549
4429.641271
4429.283521
4428.483834
4429.153225
4428.511504
4424.795687
4431.036615
4434.261041
4460.400526
4427.546707
4433.389817
4418.276051
4416.267500
4430.493233
4420.916369
4457.040587
4441.129787
4463.765026
4470.793479
4456.963419
4450.682007
4429.228435
4429.770390
4429.774957
4429.677694
4429.840916
4429.683572
4429.889829
4429.629797
4429.694029
4429.847533
4429.299437
4429.438212
4429.452465
4428.585010
4430.108147
4431.880967
4430.744931
4413.872892
4427.059769
4448.734675
4419.431454
4438.232885
4436.785258
4401.121002
4416.261225
4429.335588
4449.906747
4461.057732
4448.212712
4444.856908
4409.930379
4429.413741
4429.867132
4429.960732
4429.793117
4429.985970
4429.895972
4429.893960
4429.947870
4429.929600
4429.666981
4430.041043
4429.625613
4429.413728
4429.186457
4428.957283
4420.701626
4439.456051
4412.978803
4404.704593
4438.093108
4435.021956
4441.403693
4437.970474
4455.660143
4454.651877
4456.521914
4425.277681
4420.774426
4430.621690
4478.327055
4464.990684
4429.579213
4430.018975
4430.012391
4430.035957
4430.047243
4430.136845
4430.138778
4430.062834
4430.200456
4430.084743
4430.124244
4429.844797
4430.229481
4430.022655
4429.973489
4438.032974
4454.889391
4422.380026
4425.455964
4429.214109
4439.045019
4453.839256
4422.626464
4406.966120
4459.939075
4453.883103
4471.471564
4461.726548
4466.989859
4472.583768
4464.207439
4429.842986
4430.133931
4430.164391
4430.161726
4430.248683
4430.268194
4430.260135
4430.418916
4430.171966
4430.541058
4430.059256
4430.690497
4429.772111
4430.783101
4432.744717
4428.788477
4440.766930
4431.539466
4426.829010
4423.861941
4452.123683
4439.674375
4450.563561
4421.838762
4457.734464
4452.583715
4447.868084
4450.681911
4449.422595
4460.603171
4459.113266
4430.028915
4430.194413
4430.388791
4430.325445
4430.392575
4430.504419
4430.453396
4430.520042
4430.636325
4430.431265
4430.915551
4430.304730
4431.403444
4430.923957
4430.570729
4444.968668
4387.271727
4451.252214
4400.088659
4388.683990
4421.763397
4411.259639
4435.654903
4453.115970
4460.166187
4481.028472
4466.302064
4458.674342
4455.123811
4451.953108
4455.701499
4430.379301
4430.220599
4430.686343
4430.254594
4430.829164
4430.354346
4430.955411
4430.421487
4431.046294
4430.600334
4431.103629
4430.934558
4431.290484
4431.038798
4434.005883
4420.753953
4447.998062
4433.894482
4426.449035
4431.523226
4415.648307
4453.336674
4409.036262
4425.457786
4414.071266
4433.447946
4427.159780
4456.261426
4459.420115
4458.806479
4455.129748
4430.646731
4430.279644
4430.951704
4430.423509
4431.026821
4430.561210
4431.084454
4430.738647
4431.117250
4430.877160
4431.232882
4431.066545
4431.461054
4431.242654
4432.451546
4431.743531
4442.927075
4427.995336
4429.742512
4426.391839
4428.997127
4459.732772
4446.328408
4462.456251
4470.916193
4413.384991
4438.811205
4414.133000
4436.408018
4461.673360
4453.101282
4430.960832
4430.613806
4430.901460
4430.883182
4430.859666
4431.075820
4430.972178
4431.076483
4431.182896
4431.088489
4431.425337
4431.090759
4431.647431
4431.758053
4430.812558
4430.042410
4449.803417
4417.500369
4438.799043
4426.876480
4438.111200
4430.500289
4417.823772
4450.155143
4468.492874
4464.389988
4467.755719
4464.579771
4465.988624
4455.228097
4453.497833
4431.138693
4430.830021
4430.956995
4431.094028
4431.085253
4431.189751
4431.165873
4431.349134
4431.214779
4431.496810
4431.172518
4431.813560
4430.795235
4431.765351
4432.093254
4441.195915
4446.949642
4416.656534
4421.222886
4426.257077
4442.960022
4437.080490
4426.407946
4443.243122
4436.540926
4446.339844
4473.828966
4456.100774
4463.405435
4474.955485
4451.386687
4431.492741
4430.885306
4431.302194
4431.164793
4431.288636
4431.362582
4431.373129
4431.482544
4431.430827
4431.610559
4431.558894
4431.381024
4431.893255
4431.517529
4430.958688
4421.051517
4445.988169
4431.088167
4413.444918
4418.235226
4408.828345
4431.460587
4441.277204
4436.900154
4426.469698
4424.348871
4462.126540
4452.768415
4455.040430
4463.680633
4451.184653
4431.844337
4431.075384
4431.389809
4431.481792
4431.399236
4431.611759
4431.534080
4431.625617
4431.786739
4431.510222
4431.835851
4431.683807
4431.501721
4430.978442
4431.022057
4433.745211
4439.982909
4413.952755
4431.603646
4424.440371
4437.853764
4448.009068
4465.235060
4417.091829
4442.345517
4448.592923
4446.272183
4455.727539
4436.648837
4450.414152
4450.110202
4432.102922
4431.290765
4431.509856
4431.645405
4431.548637
4431.811570
4431.678901
4431.965944
4431.653874
4432.224065
4431.725500
4431.962583
4431.692352
4431.339803
4430.747418
4439.980968
4430.338435
4442.689856
4422.157174
4461.274099
4451.372047
4443.688225
4454.478748
4468.220373
4425.351186
4441.902369
4444.437959
4442.810288
4432.717172
4466.453385
4452.353854