# vtk DataFile Version 2.0
mfree iwf
ASCII

DATASET UNSTRUCTURED_GRID
POINTS 9435 float
0.000000 0.000445 0.000000
0.000000 0.000450 0.000000
0.000000 0.000455 0.000000
0.000000 0.000460 0.000000
0.000000 0.000465 0.000000
0.000000 0.000470 0.000000
0.000000 0.000475 0.000000
0.000000 0.000480 0.000000
0.000000 0.000485 0.000000
0.000001 0.000490 0.000000
-0.000000 0.000496 0.000000
0.000002 0.000500 0.000000
0.000326 0.000713 0.000000
0.000330 0.000721 0.000000
0.000360 0.000757 0.000000
0.000365 0.000761 0.000000
0.000365 0.000761 0.000000
0.000368 0.000765 0.000000
0.000374 0.000770 0.000000
0.000373 0.000769 0.000000
0.000381 0.000778 0.000000
0.000402 0.000797 0.000000
0.000407 0.000799 0.000000
0.000411 0.000801 0.000000
0.000416 0.000803 0.000000
0.000421 0.000805 0.000000
0.000425 0.000807 0.000000
0.000430 0.000809 0.000000
0.000433 0.000810 0.000000
0.000440 0.000812 0.000000
0.000446 0.000815 0.000000
0.000470 0.000826 0.000000
0.000005 0.000445 0.000000
0.000005 0.000450 0.000000
0.000005 0.000455 0.000000
0.000005 0.000460 0.000000
0.000005 0.000465 0.000000
0.000005 0.000470 0.000000
0.000005 0.000475 0.000000
0.000005 0.000480 0.000000
0.000005 0.000485 0.000000
0.000006 0.000489 0.000000
0.000004 0.000496 0.000000
0.000006 0.000499 0.000000
0.000357 0.000753 0.000000
0.000369 0.000756 0.000000
0.000388 0.000782 0.000000
0.000393 0.000786 0.000000
0.000396 0.000789 0.000000
0.000400 0.000791 0.000000
0.000403 0.000793 0.000000
0.000407 0.000794 0.000000
0.000413 0.000796 0.000000
0.000418 0.000798 0.000000
0.000424 0.000801 0.000000
0.000430 0.000804 0.000000
0.000437 0.000805 0.000000
0.000444 0.000810 0.000000
0.000447 0.000811 0.000000
0.000453 0.000812 0.000000
0.000460 0.000819 0.000000
0.000463 0.000821 0.000000
0.000458 0.000819 0.000000
0.000468 0.000824 0.000000
0.000010 0.000445 0.000000
0.000011 0.000450 0.000000
0.000010 0.000455 0.000000
0.000011 0.000460 0.000000
0.000010 0.000465 0.000000
0.000011 0.000469 0.000000
0.000010 0.000475 0.000000
0.000011 0.000480 0.000000
0.000009 0.000486 0.000000
0.000012 0.000490 0.000000
0.000009 0.000497 0.000000
0.000011 0.000498 0.000000
0.000361 0.000751 0.000000
0.000372 0.000757 0.000000
0.000380 0.000770 0.000000
0.000384 0.000776 0.000000
0.000387 0.000779 0.000000
0.000391 0.000783 0.000000
0.000394 0.000776 0.000000
0.000401 0.000783 0.000000
0.000403 0.000787 0.000000
0.000409 0.000791 0.000000
0.000414 0.000792 0.000000
0.000421 0.000797 0.000000
0.000426 0.000794 0.000000
0.000431 0.000796 0.000000
0.000434 0.000802 0.000000
0.000442 0.000806 0.000000
0.000456 0.000813 0.000000
0.000458 0.000815 0.000000
0.000466 0.000819 0.000000
0.000472 0.000818 0.000000
0.000015 0.000445 0.000000
0.000016 0.000450 0.000000
0.000015 0.000456 0.000000
0.000016 0.000459 0.000000
0.000015 0.000466 0.000000
0.000016 0.000470 0.000000
0.000014 0.000475 0.000000
0.000017 0.000480 0.000000
0.000014 0.000485 0.000000
0.000017 0.000489 0.000000
0.000014 0.000495 0.000000
0.000017 0.000498 0.000000
0.000025 0.000500 0.000000
0.000373 0.000761 0.000000
0.000382 0.000771 0.000000
0.000387 0.000769 0.000000
0.000396 0.000779 0.000000
0.000395 0.000785 0.000000
0.000405 0.000783 0.000000
0.000409 0.000786 0.000000
0.000415 0.000784 0.000000
0.000419 0.000792 0.000000
0.000432 0.000792 0.000000
0.000427 0.000799 0.000000
0.000438 0.000799 0.000000
0.000442 0.000801 0.000000
0.000447 0.000803 0.000000
0.000449 0.000806 0.000000
0.000455 0.000807 0.000000
0.000462 0.000810 0.000000
0.000465 0.000813 0.000000
0.000473 0.000815 0.000000
0.000020 0.000445 0.000000
0.000021 0.000450 0.000000
0.000020 0.000456 0.000000
0.000021 0.000460 0.000000
0.000019 0.000465 0.000000
0.000022 0.000468 0.000000
0.000020 0.000475 0.000000
0.000022 0.000479 0.000000
0.000020 0.000486 0.000000
0.000021 0.000491 0.000000
0.000021 0.000497 0.000000
0.000022 0.000499 0.000000
0.000039 0.000500 0.000000
0.000379 0.000757 0.000000
0.000381 0.000762 0.000000
0.000386 0.000764 0.000000
0.000388 0.000773 0.000000
0.000398 0.000773 0.000000
0.000405 0.000778 0.000000
0.000414 0.000788 0.000000
0.000411 0.000781 0.000000
0.000423 0.000787 0.000000
0.000427 0.000784 0.000000
0.000435 0.000788 0.000000
0.000438 0.000791 0.000000
0.000444 0.000797 0.000000
0.000449 0.000798 0.000000
0.000459 0.000801 0.000000
0.000458 0.000806 0.000000
0.000468 0.000808 0.000000
0.000469 0.000812 0.000000
0.000475 0.000811 0.000000
0.000025 0.000445 0.000000
0.000025 0.000450 0.000000
0.000026 0.000454 0.000000
0.000025 0.000459 0.000000
0.000025 0.000467 0.000000
0.000026 0.000471 0.000000
0.000024 0.000476 0.000000
0.000027 0.000481 0.000000
0.000024 0.000485 0.000000
0.000026 0.000488 0.000000
0.000027 0.000492 0.000000
0.000027 0.000500 0.000000
0.000342 0.000737 0.000000
0.000377 0.000761 0.000000
0.000378 0.000765 0.000000
0.000393 0.000771 0.000000
0.000398 0.000768 0.000000
0.000401 0.000777 0.000000
0.000410 0.000775 0.000000
0.000405 0.000773 0.000000
0.000416 0.000779 0.000000
0.000421 0.000783 0.000000
0.000424 0.000790 0.000000
0.000429 0.000787 0.000000
0.000435 0.000795 0.000000
0.000443 0.000793 0.000000
0.000453 0.000802 0.000000
0.000453 0.000796 0.000000
0.000464 0.000805 0.000000
0.000462 0.000799 0.000000
0.000471 0.000806 0.000000
0.000477 0.000806 0.000000
0.000030 0.000445 0.000000
0.000031 0.000450 0.000000
0.000029 0.000458 0.000000
0.000033 0.000461 0.000000
0.000029 0.000464 0.000000
0.000030 0.000469 0.000000
0.000031 0.000472 0.000000
0.000030 0.000477 0.000000
0.000031 0.000486 0.000000
0.000031 0.000492 0.000000
0.000033 0.000497 0.000000
0.000031 0.000499 0.000000
0.000049 0.000500 0.000000
0.000372 0.000751 0.000000
0.000390 0.000759 0.000000
0.000392 0.000765 0.000000
0.000395 0.000764 0.000000
0.000402 0.000770 0.000000
0.000414 0.000774 0.000000
0.000421 0.000779 0.000000
0.000418 0.000774 0.000000
0.000428 0.000779 0.000000
0.000434 0.000783 0.000000
0.000443 0.000790 0.000000
0.000443 0.000786 0.000000
0.000448 0.000791 0.000000
0.000453 0.000791 0.000000
0.000456 0.000796 0.000000
0.000468 0.000796 0.000000
0.000467 0.000801 0.000000
0.000473 0.000802 0.000000
0.000478 0.000802 0.000000
0.000035 0.000445 0.000000
0.000035 0.000450 0.000000
0.000038 0.000454 0.000000
0.000034 0.000456 0.000000
0.000035 0.000466 0.000000
0.000037 0.000472 0.000000
0.000032 0.000479 0.000000
0.000042 0.000479 0.000000
0.000035 0.000483 0.000000
0.000034 0.000488 0.000000
0.000038 0.000491 0.000000
0.000036 0.000498 0.000000
0.000322 0.000701 0.000000
0.000340 0.000734 0.000000
0.000384 0.000754 0.000000
0.000394 0.000759 0.000000
0.000404 0.000765 0.000000
0.000406 0.000761 0.000000
0.000410 0.000769 0.000000
0.000415 0.000768 0.000000
0.000424 0.000776 0.000000
0.000424 0.000771 0.000000
0.000434 0.000775 0.000000
0.000438 0.000783 0.000000
0.000442 0.000781 0.000000
0.000454 0.000786 0.000000
0.000460 0.000792 0.000000
0.000463 0.000787 0.000000
0.000463 0.000795 0.000000
0.000471 0.000795 0.000000
0.000475 0.000798 0.000000
0.000480 0.000798 0.000000
0.000040 0.000445 0.000000
0.000040 0.000450 0.000000
0.000038 0.000461 0.000000
0.000042 0.000457 0.000000
0.000041 0.000464 0.000000
0.000039 0.000468 0.000000
0.000042 0.000473 0.000000
0.000037 0.000477 0.000000
0.000041 0.000487 0.000000
0.000043 0.000492 0.000000
0.000042 0.000497 0.000000
0.000045 0.000498 0.000000
0.000305 0.000567 0.000000
0.000366 0.000752 0.000000
0.000379 0.000751 0.000000
0.000395 0.000750 0.000000
0.000400 0.000762 0.000000
0.000408 0.000765 0.000000
0.000414 0.000764 0.000000
0.000420 0.000770 0.000000
0.000429 0.000773 0.000000
0.000433 0.000780 0.000000
0.000433 0.000770 0.000000
0.000444 0.000777 0.000000
0.000447 0.000782 0.000000
0.000455 0.000781 0.000000
0.000450 0.000785 0.000000
0.000459 0.000787 0.000000
0.000466 0.000790 0.000000
0.000471 0.000790 0.000000
0.000477 0.000793 0.000000
0.000482 0.000793 0.000000
0.000045 0.000445 0.000000
0.000046 0.000450 0.000000
0.000045 0.000455 0.000000
0.000045 0.000461 0.000000
0.000045 0.000467 0.000000
0.000046 0.000473 0.000000
0.000046 0.000478 0.000000
0.000040 0.000483 0.000000
0.000052 0.000485 0.000000
0.000046 0.000483 0.000000
0.000048 0.000493 0.000000
0.000050 0.000498 0.000000
0.000305 0.000574 0.000000
0.000356 0.000750 0.000000
0.000385 0.000759 0.000000
0.000399 0.000757 0.000000
0.000401 0.000755 0.000000
0.000411 0.000760 0.000000
0.000419 0.000763 0.000000
0.000423 0.000766 0.000000
0.000429 0.000767 0.000000
0.000437 0.000771 0.000000
0.000439 0.000776 0.000000
0.000449 0.000778 0.000000
0.000443 0.000771 0.000000
0.000457 0.000777 0.000000
0.000461 0.000782 0.000000
0.000466 0.000784 0.000000
0.000471 0.000784 0.000000
0.000475 0.000787 0.000000
0.000479 0.000789 0.000000
0.000484 0.000789 0.000000
0.000050 0.000445 0.000000
0.000051 0.000450 0.000000
0.000049 0.000455 0.000000
0.000052 0.000459 0.000000
0.000050 0.000464 0.000000
0.000051 0.000473 0.000000
0.000050 0.000468 0.000000
0.000050 0.000478 0.000000
0.000047 0.000488 0.000000
0.000053 0.000491 0.000000
0.000058 0.000492 0.000000
0.000053 0.000498 0.000000
0.000307 0.000643 0.000000
0.000356 0.000744 0.000000
0.000369 0.000749 0.000000
0.000393 0.000753 0.000000
0.000405 0.000754 0.000000
0.000409 0.000755 0.000000
0.000416 0.000756 0.000000
0.000417 0.000759 0.000000
0.000431 0.000761 0.000000
0.000428 0.000763 0.000000
0.000439 0.000765 0.000000
0.000447 0.000769 0.000000
0.000449 0.000773 0.000000
0.000452 0.000774 0.000000
0.000460 0.000777 0.000000
0.000464 0.000776 0.000000
0.000468 0.000779 0.000000
0.000475 0.000782 0.000000
0.000481 0.000784 0.000000
0.000486 0.000784 0.000000
0.000054 0.000445 0.000000
0.000057 0.000450 0.000000
0.000055 0.000455 0.000000
0.000055 0.000461 0.000000
0.000056 0.000466 0.000000
0.000056 0.000471 0.000000
0.000056 0.000477 0.000000
0.000058 0.000480 0.000000
0.000053 0.000483 0.000000
0.000057 0.000487 0.000000
0.000056 0.000497 0.000000
0.000060 0.000497 0.000000
0.000312 0.000667 0.000000
0.000353 0.000749 0.000000
0.000362 0.000747 0.000000
[...]
POINT_DATA 9435
SCALARS density float 1
LOOKUP_TABLE default
4430.373591
4429.362720
4426.175301
4422.554279
4421.183535
4429.845986
4438.861416
4435.734111
4445.230920
4423.897755
4432.255447
4400.329555
4426.374925
4439.945936
4439.994157
4430.706871
4441.753652
4442.005468
4455.721225
4452.869560
4420.823831
4422.435260
4409.926650
4447.892078
4429.485235
4420.511364
4448.652353
4440.910063
4415.572756
4457.555333
4439.754804
4446.864486
4427.625290
4429.577901
4426.646478
4440.585750
4443.238924
4421.498322
4416.651995
4412.497029
4399.525993
4426.110944
4441.202612
4402.385926
4418.253443
4436.750928
4415.550293
4400.630583
4419.899240
4414.634965
4423.072035
4449.536371
4415.735349
4436.872232
4432.868043
4391.773265
4427.997505
4391.364537
4388.985518
4413.990756
4409.810895
4410.041807
4409.633890
4413.820335
4423.269798
4434.404540
4437.719376
4406.534932
4426.702045
4417.236294
4462.056841
4406.768499
4479.569887
4363.180102
4474.272572
4403.104171
4406.584721
4482.509686
4434.323753
4385.224604
4407.361764
4422.231828
4436.884700
4402.817941
4441.452227
4413.516596
4414.185208
4424.170909
4405.708465
4422.333191
4462.816519
4394.208909
4447.565169
4440.652380
4447.696200
4416.059732
4435.547229
4444.317960
4446.116802
4432.840731
4446.032231
4399.178715
4453.672820
4359.658300
4475.311914
4393.734944
4516.930155
4396.782539
4436.524744
4343.114446
4434.292892
4432.018233
4449.958193
4450.732190
4425.596268
4433.581956
4431.831354
4411.319665
4449.843776
4432.944316
4404.060296
4462.277572
4455.547659
4498.277612
4456.780652
4336.040384
4520.185033
4447.208148
4434.731879
4417.501108
4432.223888
4408.221085
4458.477967
4423.761725
4448.095750
4448.387057
4479.538126
4359.172631
4479.506688
4440.388530
4421.069903
4380.696703
4470.843630
4395.939129
4535.818390
4449.112337
4475.420419
4443.740142
4423.375785
4425.709740
4422.332406
4443.480147
4414.540031
4421.411417
4373.772794
4444.894645
4455.187880
4442.871848
4347.865640
4435.306371
4428.456180
4437.502871
4424.130788
4444.419000
4444.037041
4400.332366
4457.455170
4368.682604
4428.381757
4467.692107
4408.294146
4428.446298
4424.337958
4479.967988
4368.936509
4345.369432
4473.776328
4387.008370
4430.280407
4403.224759
4421.253183
4424.317214
4467.647250
4388.324641
4417.165603
4460.823785
4362.732974
4496.382452
4471.182933
4393.862483
4440.235802
4420.634066
4434.043617
4419.810896
4425.815092
4430.065637
4425.169200
4456.664017
4421.042693
4455.213006
4440.905000
4409.333795
4457.654937
4425.940707
4418.243010
4429.605667
4430.239307
4462.481764
4419.730697
4410.245021
4445.962066
4443.578518
4428.481025
4413.212964
4446.438361
4454.868436
4399.473520
4395.345733
4409.379354
4447.290187
4485.974166
4393.945891
4410.356268
4444.933398
4434.683672
4422.891513
4431.203079
4424.255113
4418.886224
4422.886532
4455.290849
4424.848415
4416.304772
4431.096754
4415.621900
4444.848285
4425.895759
4419.701137
4429.277270
4414.169057
4427.798348
4441.316710
4446.402036
4418.294727
4433.796127
4421.789157
4419.923436
4419.452503
4451.055688
4460.676132
4401.769092
4469.530106
4430.551262
4436.244719
4412.828442
4417.423823
4427.161887
4424.966708
4435.914559
4397.289590
4451.255516
4437.697533
4444.566274
4421.773994
4451.711614
4434.536821
4435.212480
4422.252814
4574.213902
4381.942354
4440.335116
4434.070311
4385.904258
4432.758053
4426.021103
4436.820470
4442.451188
4447.709091
4453.215690
4429.962693
4436.931507
4397.888680
4443.177394
4423.238222
4420.308762
4377.207241
4437.301225
4437.506672
4429.062002
4421.821119
4437.339910
4415.446722
4409.875773
4406.320705
4461.826239
4423.559587
4459.954524
4420.602331
4474.476985
4438.503260
4515.602079
4416.425634
4424.931622
4459.152633
4447.841138
4421.469420
4454.060046
4429.630633
4419.034099
4433.743635
4410.461067
4407.897547
4414.806300
4446.748029
4402.327055
4418.493995
4434.249837
4471.877453
4420.320619
4413.373879
4433.934418
4407.847454
4448.573964
4430.642564
4427.659094
4450.293774
4441.838655
4371.892182
4372.856468
4409.452340
4525.026180
4415.008484
4431.218261
4487.266253
4440.396780
4448.120955
4447.615265
4415.738859
4453.907645
4436.040101
4468.432853
4451.809251
4436.916162
4406.062582
4453.152573
4439.848949
4463.308922
4436.141681
4450.515368
4411.269597
4423.243620
4433.369998
4430.292042
4422.309115
4419.469925
4442.208724
4402.586416
4443.993422
4425.560482
4429.900178
4473.371375
4354.267147
4424.651655
4396.862324
4425.296774
4411.995237
4495.544787
4427.340426
4449.785009
4426.834914
4467.725843
4423.869509
4400.055098
4432.873175
4452.289757
4402.782842
4428.034015
4412.946251
4429.433887
4418.700299
4436.706786
4438.900467
4433.682626
4420.941916
4418.685794
4408.255829
4445.057149
4414.560993
4424.315147
4445.484430
4423.174011
4421.101912
4477.737046
4409.809416
4443.599277
4434.095731
4414.433566
4433.693449
4438.137648
4409.740752
4394.280615
4443.230196
4401.905802
4444.847264
4396.628544
4418.770309
4420.496749
4443.799760
4436.552991
4447.530371
4461.992101
4447.979393
4428.306972
4426.800902
4421.488550
4431.778593
4439.738735
4425.954353
4419.783552
4438.889648
4443.323661
4424.338496
4408.630619
4438.213228
4447.093626
4367.805663
4465.753899
4432.317187
4427.456015
4419.950040
4432.926601
4410.075235
4438.601794
4420.530149
4446.542588
4413.713371
4415.848475
4445.847220
4448.854562
4447.785897
4401.193452
4418.717802
4399.295387
4434.575724
4422.827114
4441.630828
4425.351774
4424.623862
4424.452700
4423.322619
4405.876352
4420.597454
4416.449014
4433.906131
4428.055920
4422.157831
4385.231050
4406.132600
4432.222494
4454.597470
4544.620088
4419.468346
4414.682666
4460.429937
4443.419799
4404.255034
4441.781850
4491.176305
4375.190675
4430.373227
4464.222372
4404.835949
4401.399948
4447.054114
4416.175338
4442.556682
4428.606839
4419.826834
4431.383213
4427.675195
4444.385839
4410.986355
4427.259745
4405.725112
4423.945207
4424.327285
4436.994370
4446.757259
4488.039041
4344.603032
4444.101721
4452.043518
4424.273669
4416.567923
4418.798187
4336.253371
4449.220580
4474.902244
4446.980207
4439.029899
4420.373442
4406.211617
4422.343349
4427.493879
4486.610727
4455.802723
4449.524898
4398.343639
4424.017693
4431.283283
4423.857072
4425.277491
4412.382841
4422.167703
4439.946353
4424.451205
4437.932385
4400.894216
4454.743997
4401.721175
4457.748272
4476.724377
4417.674947
4416.721653
4416.894508
4428.869205
4464.080653
4426.594835
4438.913561
4430.664961
4447.696168
4420.087085
4452.225651
4465.017022
4426.446470
4427.825005
4431.435578
4448.991678
4427.687289
4437.978261
4438.814376
4442.078740
4424.251394
4433.051774
4448.442723
4437.527028
4436.894849
4446.757266
4457.225794
4424.159152
4442.741269
4431.452905
4395.319681
4363.196727
4432.007819
4466.151313
4489.242490
4488.955111
4467.670161
4434.761313
4429.977585
4384.381200
4469.414479
4473.465494
4440.618367
4481.072022
4453.795185
4414.788412
4406.000445
4452.925129
4397.934038
4436.342908
4401.308209
4434.619064
4426.753639
4428.332778
4421.465052
4432.219335
4429.449394
4423.656284
4406.254929
4460.491306
4439.146421
4460.537470
4425.952447
4453.698894
4398.868290
4425.194475
4419.913553
4416.789596
4428.711077
4409.675901
4435.396204
4399.864037
4441.507665
4410.737250
4410.505748
4423.099304
4403.772815
4411.279278
4452.063878
4426.699867
4454.910936
4437.808052
4446.587820
4437.742556
4416.752462
4428.330181
4446.059003
4431.406613
4408.291409
4414.566283
4423.928066
4394.263081
4404.616014
4408.819294
4486.254250
4446.054990
4424.702991
4438.137485
4414.395473
4418.148680
4468.840129
4437.463187
4413.650943
4441.558788
4437.876736
4374.926942
4504.563547
4419.359464
4468.046107
4404.194521
4455.174324
4393.750094
4427.809519
4409.926405
4409.532812
4434.837757
4427.793211
4429.663603
4418.051594
4426.930011
4434.649110
4429.776823
4439.346769
4443.244204
4398.125825
4372.064897
4464.331846
4475.680653
4383.849333
4544.232013
4425.497022
4419.806478
4414.890298
4460.633727
4422.569005
4436.628771
4411.527998
4477.427789
4451.510118
4471.664097
4456.107389
4409.754365
4464.041239
4445.502976
4421.654560
4475.260786
4439.309644
4406.616006
4438.442031
4420.067910
4447.638028
4436.696267
4417.659133
4414.746600
4442.349636
4430.144147
4411.654229
4430.253453
4471.715165
4376.472128
4428.277067
4433.183385
4444.798581
4431.802973
4416.899249
4400.916817
4437.920942
4462.521553
4495.271279
4449.048797
4411.336966
4360.693770
4434.654389
4447.524769
4459.140804
4422.488206
4427.332977
4423.631583
4428.283236
4423.986286
4432.514016
4436.613077
4430.233593
4434.236313
4432.617729
4447.553908
4405.474720
4405.905739
4440.098744
4393.303724
4446.972544
4392.699597
4372.531450
4477.473513
4427.313659
4413.498911
4432.399201
4456.337661
4456.150400
4443.708097
4428.455890
4412.021842
4398.650782
4365.158696
4365.211400
4456.125734
4414.016150
4411.617514
4454.440349
4429.236862
4472.264881
4421.965701
4411.596723
4426.422570
4433.284477
4442.438737
4420.054942
4410.315640
4433.893298
4429.438640
4410.283506
4441.177408
4459.249240
4454.327268
4413.599794
4427.186211
4411.602013
4435.899522
4376.127682
4354.418285
4468.220376
4449.891392
4424.862141
4422.542635
4450.214720
4427.319220
4414.808477
4423.068753
4452.700985
4443.201930
4422.597089
4436.603802
4416.471434
4408.925825
4451.172492
4422.683613
4417.978910
4428.614089
4428.216920
4428.669926
4429.212761
4429.330995
4429.734544
4429.850412
4430.253444
4430.382887
4430.837537
4430.918256
4431.043219
4430.853425
4430.147368
4421.404058
4427.408790
4427.532114
4428.355946
4428.968197
4429.189128
4429.776277
4429.820736
4430.214389
4430.063078
4430.289646
4430.132326
4430.497702
4430.699164
4430.603784
4423.995355
4427.297242
4427.232640
4427.679608
4428.546628
4428.436370
4429.199171
4428.992036
4429.764058
4429.711242
4430.458330
4430.224781
4430.274234
4429.951169
4429.331320
4425.131969
4427.568034
4427.615764
4428.082982
4428.602861
4428.866851
4429.251021
4429.362228
4429.679504
4429.297344
4429.447957
4428.943178
4429.382239
4428.698580
4429.788500
4426.433712
4427.782077
4427.695726
4427.808907
4428.265653
4428.186195
4428.784887
4428.603079
4429.140278
4429.193161
4429.867846
4429.318909
4429.846566
4428.093537
4428.782131
4426.746184
4427.952387
4428.133248
4427.905802
4428.815536
4428.431078
4429.207292
4428.758960
4429.522326
4428.651720
4429.029427
4428.428830
4428.560297
4427.737023
4429.409845
4427.022324
4428.104853
4427.989740
4427.915899
4428.201677
4428.029800
4428.533021
4428.354497
4428.773807
4428.868038
4429.570078
4429.042506
4429.382661
4427.689999
4428.568328
4427.259635
4428.312120
4428.125837
4428.121237
4428.584105
4428.475992
4428.830548
4428.681313
4429.092444
4428.593561
4428.730894
4428.214140
4428.957644
4427.286058
4427.973759
4427.159619
4428.222935
4428.116598
4427.828100
4428.203343
4427.812421
4428.407231
4428.041297
4428.680073
4428.548411
4429.604344
4429.352150
4429.759225
4429.210389
4429.242816
4427.448604
4428.384959
4428.080975
4428.165067
4428.392246
4428.403884
4428.532915
4428.576836
4428.614280
4428.706008
4428.381605
4428.797227
4429.402392
4429.862556
4430.310373
4427.072268
4428.377476
4427.878856
4427.911653
4427.840366
4427.870310
4427.866063
4427.963672
4428.195201
4428.431012
4429.257180
4429.464439
4430.626377
4430.569441
4431.439220
4427.144614
4428.480981
4427.802855
4428.132725
4428.160668
4428.134278
4428.259262
4428.157098
4428.368803
4428.130193
4428.278869
4428.225549
4429.054603
4430.112077
4431.368653
4427.146635
4428.263204
4427.795300
4427.842285
4427.528645
4427.723606
4427.449075
4427.781019
4427.565276
4428.233090
4428.146492
4428.969588
4429.238037
4429.618265
4430.751210
4426.378805
4439.337665
4428.117290
4452.759805
4424.153180
4458.442516
4429.012595
4423.724272
4399.802209
4411.237175
4402.740875
4432.012664
4423.562434
4438.176329
4431.622874
4414.991299
4427.110181
4428.258612
4427.812759
4427.778989
4428.007391
4427.835162
4427.870947
4427.807979
4427.763217
4427.359125
4427.457251
4427.071323
4426.900502
4427.810986
4428.284776
4424.857926
4443.249851
4423.631597
4422.845792
4412.967603
4440.288734
4433.044666
4399.517461
4441.777571
4435.721877
4411.391499
4452.075243
4427.676782
4468.266863
4390.917393
4398.717459
4426.705756
4427.961925
4427.756150
4427.411908
4427.608487
4426.894765
4427.600273
4426.604678
4427.483029
4426.901970
4427.718326
4427.071344
4428.063499
4426.126521
4427.786149
4424.325479
4449.777566
4423.984396
4444.444039
4396.622301
4444.323104
4422.155361
4410.937368
4415.383186
4419.452326
4469.085838
4420.474029
4414.063241
4453.729469
4373.990792
4444.084125
4426.784479
4427.918772
4427.876568
4427.190683
4427.947502
4427.295132
4427.559065
4427.188843
4427.287186
4426.463367
4426.751312
4425.487932
4425.867123
4423.388830
4427.027695
4412.234426
4405.570397
4409.632020
4377.304709
4410.717552
4441.531927
4430.482530
4460.765816
4440.785959
4404.829285
4442.602468
4404.781502
4402.912408
4389.154610
4405.068102
4429.851739
4426.283730
4427.972395
4427.304131
4427.348523
4427.159864
4426.671078
4427.026128
4426.436911
4426.707197
4426.610162
4426.529467
4425.892749
4426.107683
4423.633134
4421.621701
4440.830397
4451.632515
4414.035579
4465.647566
4460.924376
4429.512692
4472.460212
4437.937496
4394.138659
4463.919549
4434.695313
4461.333535
4403.201758
4416.482308
4434.604454
4411.710287
4426.240836
4428.028490
4427.191431
4427.445395
4427.070205
4427.394380
4426.954386
4426.956792
4426.796149
4425.882933
4425.868431
4425.016785
4424.170831
4423.456376
4422.614815
4416.108258
4399.901327
4448.958188
4442.001105
4492.135704
4382.425603
4446.987260
4416.108167
4420.543842
4383.113930
4398.828299
4463.990482
4397.758279
4447.292701
4457.234630
4428.196608
4426.262127
4427.648414
4427.398512
4426.789124
4427.162706
4426.464060
4426.622686
4426.599193
4425.972978
4426.706720
4425.569510
4425.857944
4425.520770
4423.739791
4424.150559
4449.775072
4441.854656
4454.047874
4383.151602
4339.796263
4438.579976
4503.048918
4550.199055
4456.229856
4432.996384
4402.751235
4424.865464
4488.144041
4435.942125
4487.796842
4389.935983
4426.042886
4427.757809
4427.111646
4427.222556
4427.060947
4426.923902
4427.212145
4426.293829
4426.886644
4425.280538
4426.116614
4424.690032
4424.731557
4425.035044
4424.549597
4434.128039
4417.727053
4439.496805
4407.135597
4409.079869
4465.014989
4450.157115
4457.351918
4414.898006
4400.291826
4456.189049
4383.368563
4416.940788
4466.665494
4413.017668
4434.131468
4425.904038
4427.498805
4427.237415
4426.592517
4427.133207
4426.355144
4426.733855
4426.079173
4426.484814
4425.926214
4426.209025
4425.935789
4426.183463
4425.674791
4426.370945
4427.188039
4452.181969
4400.780599
4434.054071
4425.874922
4433.078737
4496.526896
4420.615059
4435.157811
4436.626813
4410.757517
4386.961228
4423.297776
4430.535154
4388.973313
4413.117817
4425.877625
4427.408693
4427.337114
4426.667175
4427.432269
4426.449557
4427.077141
4426.400463
4426.028007
4425.685898
4425.696302
4424.587307
4426.064872
4424.175208
4426.650066
4420.358046
4433.535912
4438.139298
4437.336430
4379.462476
4409.443199
4469.853321
4499.728813
4400.215849
4406.025958
4414.664061
4439.662155
4351.433555
4428.143143
4488.494878
4444.109023
4425.813713
4427.545320
4426.894029
4427.002066
4426.545527
4426.494562
4426.466819
4425.422618
4426.538834
4425.318136
4426.198147
4425.888636
4425.350288
4424.249279
4424.984135
4434.707429
4429.667802
4437.475028
4421.914304
4429.902908
4429.522668
4443.629141
4488.278454
4412.006658
4416.989712
4432.880717
4436.139381
4442.158774
4424.130521
4422.048044
4390.965366
4425.839708
4427.381192
4427.146796
4426.488879
4427.157404
4426.191892
4426.543261
4426.282023
4425.763718
4425.580965
4425.946264
4424.339515
4425.425620
4423.891258
4422.891936
4444.998517
4443.329440
4417.546341
4431.419874
4399.597465
4420.085730
4459.432860
4429.068995
4486.970147
4448.974363
4422.695492
4393.121153
4426.320275
4396.169254
4392.522105
4470.376577
4425.840490
4427.188023
4427.273095
4426.239118
4426.909942
4425.785982
4426.596136
4425.471794
4426.460844
4426.231755
4425.791071
4425.993040
4425.073212
4424.891551
4426.190514
4434.913998
4405.957276
4418.932944
4413.582695
4394.024033
4448.985806
4453.780906
4458.164851
4438.869268
4407.902752
4445.937035
4448.169892
4437.797028
4399.193521
4456.750726
4478.379901
4425.778622
4427.509947
4426.682902
4427.035271
4426.491704
4426.666243
4426.699077
4426.338203
4426.631284
4424.887034
4426.037210
4424.391024
4425.197060
4423.813467
4425.570262
4444.246010
4407.445486
4417.999317
4442.977569
4425.657880
4423.611612
4498.639749
4397.591229
4464.253035
4444.959187
4460.917706
4454.299099
4443.865791
4418.882350
4425.466296
4448.529615
4425.518613
4427.342144
4427.058277
4426.179442
4427.064925
4426.212185
4426.462673
4426.143370
4425.694920
4426.138302
4425.426554
4425.076456
4426.079937
4424.853160
4424.731934
4428.197024
4426.514962
4408.129728
4437.207388
4454.962861
4459.462907
4412.845295
4482.096164
4452.642033
4454.657248
4451.254361
4424.411002
4438.797850
4426.971770
4401.510346
4420.331958
4425.716501
4427.275023
4426.986726
4426.887273
4426.986713
4426.431626
4427.049918
4425.860258
4426.663289
4424.905768
4425.950156
4425.330338
4425.460768
4424.889481
4425.697368
4424.411638
4447.459808
4446.317186
4411.346347
4356.449797
4429.324686
4379.385735
4486.818443
4432.986132
4465.779360
4449.784567
4448.017488
4430.922294
4401.441469
4456.497322
4419.051240
4425.601186
4427.578103
4426.787391
4426.921371
4426.585967
4426.861463
4426.438271
4426.592921
4426.309818
4426.650491
4426.208355
4426.201584
4425.893047
4425.426440
4426.732032
4433.122918
4413.752636
4397.263565
4486.399954
4410.455950
4422.973162
4477.828474
4486.286131
4469.718927
4422.043453
4436.002419
4451.956928
4434.102822
4435.175783
4383.907578
4420.822657
4425.649394
4427.369089
4427.047812
4426.590153
4427.233889
4426.418096
4426.750041
4426.433373
4425.989219
4425.321317
4425.463924
4424.658624
4425.868112
4425.101216
4421.733865
4447.060694
4424.341874
4421.852937
4415.172164
4400.377846
4379.531918
4494.367559
4472.334626
4481.429189
4484.470070
4399.827923
4425.361508
4456.941189
4441.662210
4460.284010
4413.494657
4425.764146
4427.173296
4427.235006
4426.650533
4426.738864
4425.980088
4426.701781
4425.044908
4426.111497
4425.263881
4426.027414
4426.013943
4425.883833
4424.473761
4428.360827
4421.476183
4433.435318
4457.637314
4468.216092
4453.788688
4456.091063
4472.105709
4463.867854
4460.147057
4449.009625
4420.416994
4429.525580
4397.537151
4445.483529
4442.310199
4424.233629
4425.605270
4427.587782
4426.938603
4426.618646
4426.738012
4426.484979
4426.335997
4426.578936
4426.362654
4426.067564
4426.142480
4425.419372
4425.709240
4423.311594
4426.781327
4439.697473
4429.372645
4421.901554
4443.006684
4438.595387
4448.102560
4482.737963
4470.660334
4467.318768
4466.354663
4406.475044
4407.581174
4383.973089
4382.168922
4335.813103
4421.830685
4425.598820
4427.381862
4427.029797
4426.560437
4427.104849
4426.322124
4427.303323
4426.368511
4427.008621
4426.654733
4427.064300
4424.544982
4426.522024
4426.506531
4423.067236
4437.135972
4446.192171
4436.804686
4430.359446
4435.933309
4456.441250
4456.254213
4454.375841
4462.553580
4459.639483
4466.260399
4438.193012
4431.737410
4450.936114
4543.201620
4411.975604
4425.614979
4427.486022
4427.281661
4427.000744
4427.137701
4427.009675
4426.985650
4426.295029
4427.003487
4425.174425
4424.416519
4424.905502
4424.819968
4423.955847
4427.135744
4422.574139
4431.226448
4404.313319
4432.712575
4436.036078
4429.554921
4457.790330
4460.527746
4456.565041
4435.249993
4463.795857
4453.935855
4433.443478
4438.477437
4410.305110
4437.013886
4425.810529
4427.996841
4426.903120
4427.361494
4426.881763
4427.033389
4426.249821
4427.083249
4425.358166
4426.566364
4424.717858
4423.515143
4424.681934
4425.789557
4426.119191
4427.235323
4429.749760
4398.832919
4441.567772
4428.575423
4457.219997
4428.714693
4480.758127
4453.281199
4454.159616
4447.084068
4450.742421
4453.681713
4429.765573
4378.143071
4403.494402