# vtk DataFile Version 2.0
mfree iwf
ASCII

DATASET UNSTRUCTURED_GRID
POINTS 10428 float
0.000000 0.000445 0.000000
0.000000 0.000450 0.000000
0.000000 0.000455 0.000000
0.000000 0.000460 0.000000
0.000000 0.000465 0.000000
0.000000 0.000470 0.000000
0.000000 0.000475 0.000000
0.000000 0.000480 0.000000
0.000000 0.000485 0.000000
0.000000 0.000490 0.000000
-0.000000 0.000496 0.000000
0.000002 0.000500 0.000000
0.000663 0.000873 0.000000
0.000671 0.000877 0.000000
0.000717 0.000885 0.000000
0.000723 0.000885 0.000000
0.000723 0.000885 0.000000
0.000730 0.000885 0.000000
0.000737 0.000885 0.000000
0.000733 0.000886 0.000000
0.000747 0.000887 0.000000
0.000774 0.000888 0.000000
0.000781 0.000886 0.000000
0.000785 0.000885 0.000000
0.000790 0.000884 0.000000
0.000795 0.000882 0.000000
0.000799 0.000880 0.000000
0.000804 0.000878 0.000000
0.000807 0.000877 0.000000
0.000814 0.000875 0.000000
0.000820 0.000873 0.000000
0.000844 0.000869 0.000000
0.000005 0.000445 0.000000
0.000005 0.000450 0.000000
0.000005 0.000455 0.000000
0.000005 0.000460 0.000000
0.000005 0.000465 0.000000
0.000005 0.000470 0.000000
0.000005 0.000475 0.000000
0.000005 0.000480 0.000000
0.000005 0.000485 0.000000
0.000006 0.000490 0.000000
0.000004 0.000496 0.000000
0.000006 0.000499 0.000000
0.000712 0.000883 0.000000
0.000722 0.000878 0.000000
0.000754 0.000885 0.000000
0.000761 0.000886 0.000000
0.000766 0.000886 0.000000
0.000770 0.000885 0.000000
0.000773 0.000885 0.000000
0.000777 0.000882 0.000000
0.000781 0.000881 0.000000
0.000788 0.000879 0.000000
0.000794 0.000877 0.000000
0.000800 0.000875 0.000000
0.000806 0.000872 0.000000
0.000815 0.000870 0.000000
0.000818 0.000868 0.000000
0.000824 0.000867 0.000000
0.000834 0.000868 0.000000
0.000837 0.000868 0.000000
0.000831 0.000869 0.000000
0.000842 0.000867 0.000000
0.000010 0.000445 0.000000
0.000010 0.000450 0.000000
0.000010 0.000455 0.000000
0.000010 0.000460 0.000000
0.000010 0.000465 0.000000
0.000011 0.000470 0.000000
0.000010 0.000475 0.000000
0.000011 0.000480 0.000000
0.000009 0.000486 0.000000
0.000012 0.000490 0.000000
0.000009 0.000497 0.000000
0.000011 0.000498 0.000000
0.000714 0.000879 0.000000
0.000725 0.000877 0.000000
0.000741 0.000881 0.000000
0.000747 0.000883 0.000000
0.000752 0.000884 0.000000
0.000758 0.000884 0.000000
0.000753 0.000878 0.000000
0.000762 0.000878 0.000000
0.000767 0.000879 0.000000
0.000773 0.000879 0.000000
0.000782 0.000877 0.000000
0.000788 0.000875 0.000000
0.000790 0.000872 0.000000
0.000794 0.000869 0.000000
0.000801 0.000871 0.000000
0.000811 0.000870 0.000000
0.000827 0.000866 0.000000
0.000829 0.000866 0.000000
0.000837 0.000863 0.000000
0.000841 0.000859 0.000000
0.000015 0.000445 0.000000
0.000016 0.000450 0.000000
0.000015 0.000456 0.000000
0.000016 0.000460 0.000000
0.000015 0.000465 0.000000
0.000016 0.000470 0.000000
0.000014 0.000476 0.000000
0.000016 0.000480 0.000000
0.000014 0.000485 0.000000
0.000016 0.000489 0.000000
0.000014 0.000495 0.000000
0.000016 0.000498 0.000000
0.000025 0.000500 0.000000
0.000729 0.000878 0.000000
0.000743 0.000881 0.000000
0.000742 0.000876 0.000000
0.000756 0.000878 0.000000
0.000762 0.000883 0.000000
0.000770 0.000876 0.000000
0.000775 0.000874 0.000000
0.000774 0.000869 0.000000
0.000783 0.000873 0.000000
0.000795 0.000863 0.000000
0.000796 0.000874 0.000000
0.000803 0.000864 0.000000
0.000808 0.000867 0.000000
0.000811 0.000864 0.000000
0.000815 0.000864 0.000000
0.000821 0.000862 0.000000
0.000827 0.000861 0.000000
0.000831 0.000860 0.000000
0.000840 0.000855 0.000000
0.000020 0.000445 0.000000
0.000021 0.000450 0.000000
0.000019 0.000456 0.000000
0.000022 0.000459 0.000000
0.000018 0.000466 0.000000
0.000023 0.000468 0.000000
0.000018 0.000474 0.000000
0.000022 0.000479 0.000000
0.000019 0.000486 0.000000
0.000021 0.000491 0.000000
0.000021 0.000497 0.000000
0.000022 0.000499 0.000000
0.000039 0.000500 0.000000
0.000730 0.000869 0.000000
0.000734 0.000875 0.000000
0.000743 0.000871 0.000000
0.000747 0.000878 0.000000
0.000758 0.000872 0.000000
0.000764 0.000867 0.000000
0.000777 0.000873 0.000000
0.000768 0.000871 0.000000
0.000783 0.000863 0.000000
0.000786 0.000859 0.000000
0.000792 0.000857 0.000000
0.000799 0.000862 0.000000
0.000807 0.000861 0.000000
0.000813 0.000857 0.000000
0.000819 0.000856 0.000000
0.000824 0.000857 0.000000
0.000832 0.000854 0.000000
0.000835 0.000858 0.000000
0.000839 0.000851 0.000000
0.000025 0.000445 0.000000
0.000026 0.000450 0.000000
0.000024 0.000455 0.000000
0.000026 0.000461 0.000000
0.000023 0.000465 0.000000
0.000025 0.000472 0.000000
0.000023 0.000476 0.000000
0.000027 0.000481 0.000000
0.000023 0.000485 0.000000
0.000026 0.000488 0.000000
0.000026 0.000492 0.000000
0.000027 0.000500 0.000000
0.000691 0.000881 0.000000
0.000732 0.000877 0.000000
0.000736 0.000879 0.000000
0.000753 0.000873 0.000000
0.000750 0.000869 0.000000
0.000764 0.000874 0.000000
0.000769 0.000867 0.000000
0.000760 0.000870 0.000000
0.000772 0.000861 0.000000
0.000781 0.000868 0.000000
0.000790 0.000866 0.000000
0.000786 0.000868 0.000000
0.000799 0.000867 0.000000
0.000802 0.000858 0.000000
0.000817 0.000860 0.000000
0.000810 0.000855 0.000000
0.000828 0.000854 0.000000
0.000822 0.000851 0.000000
0.000833 0.000850 0.000000
0.000837 0.000846 0.000000
0.000030 0.000445 0.000000
0.000031 0.000450 0.000000
0.000030 0.000455 0.000000
0.000030 0.000460 0.000000
0.000032 0.000464 0.000000
0.000029 0.000469 0.000000
0.000032 0.000471 0.000000
0.000030 0.000477 0.000000
0.000031 0.000486 0.000000
0.000031 0.000492 0.000000
0.000033 0.000497 0.000000
0.000031 0.000499 0.000000
0.000049 0.000500 0.000000
0.000723 0.000871 0.000000
0.000740 0.000868 0.000000
0.000747 0.000872 0.000000
0.000747 0.000866 0.000000
0.000756 0.000867 0.000000
0.000766 0.000862 0.000000
0.000779 0.000865 0.000000
0.000773 0.000864 0.000000
0.000781 0.000859 0.000000
0.000790 0.000862 0.000000
0.000802 0.000853 0.000000
0.000797 0.000856 0.000000
0.000806 0.000856 0.000000
0.000810 0.000850 0.000000
0.000815 0.000852 0.000000
0.000821 0.000847 0.000000
0.000826 0.000849 0.000000
0.000832 0.000847 0.000000
0.000836 0.000842 0.000000
0.000035 0.000445 0.000000
0.000035 0.000450 0.000000
0.000034 0.000456 0.000000
0.000039 0.000454 0.000000
0.000034 0.000467 0.000000
0.000037 0.000473 0.000000
0.000032 0.000479 0.000000
0.000042 0.000478 0.000000
0.000035 0.000483 0.000000
0.000034 0.000488 0.000000
0.000037 0.000491 0.000000
0.000036 0.000498 0.000000
0.000652 0.000867 0.000000
0.000687 0.000880 0.000000
0.000734 0.000867 0.000000
0.000742 0.000863 0.000000
0.000756 0.000861 0.000000
0.000752 0.000856 0.000000
0.000761 0.000863 0.000000
0.000765 0.000855 0.000000
0.000776 0.000857 0.000000
0.000776 0.000852 0.000000
0.000784 0.000849 0.000000
0.000794 0.000851 0.000000
0.000797 0.000852 0.000000
0.000806 0.000846 0.000000
0.000816 0.000848 0.000000
0.000814 0.000837 0.000000
0.000823 0.000844 0.000000
0.000826 0.000842 0.000000
0.000831 0.000842 0.000000
0.000835 0.000837 0.000000
0.000040 0.000445 0.000000
0.000041 0.000450 0.000000
0.000036 0.000462 0.000000
0.000040 0.000458 0.000000
0.000041 0.000463 0.000000
0.000040 0.000468 0.000000
0.000041 0.000472 0.000000
0.000037 0.000477 0.000000
0.000041 0.000488 0.000000
0.000042 0.000491 0.000000
0.000041 0.000497 0.000000
0.000044 0.000498 0.000000
0.000545 0.000752 0.000000
0.000718 0.000876 0.000000
0.000725 0.000867 0.000000
0.000741 0.000857 0.000000
0.000752 0.000863 0.000000
0.000763 0.000859 0.000000
0.000757 0.000858 0.000000
0.000771 0.000856 0.000000
0.000782 0.000854 0.000000
0.000786 0.000854 0.000000
0.000778 0.000849 0.000000
0.000790 0.000846 0.000000
0.000796 0.000845 0.000000
0.000805 0.000841 0.000000
0.000803 0.000848 0.000000
0.000812 0.000845 0.000000
0.000816 0.000843 0.000000
0.000822 0.000838 0.000000
0.000829 0.000837 0.000000
0.000833 0.000833 0.000000
0.000044 0.000445 0.000000
0.000047 0.000450 0.000000
0.000044 0.000454 0.000000
0.000047 0.000461 0.000000
0.000045 0.000468 0.000000
0.000046 0.000473 0.000000
0.000046 0.000479 0.000000
0.000040 0.000483 0.000000
0.000052 0.000486 0.000000
0.000045 0.000483 0.000000
0.000048 0.000493 0.000000
0.000050 0.000498 0.000000
0.000548 0.000760 0.000000
0.000709 0.000882 0.000000
0.000737 0.000871 0.000000
0.000748 0.000861 0.000000
0.000746 0.000857 0.000000
0.000760 0.000854 0.000000
0.000766 0.000849 0.000000
0.000770 0.000852 0.000000
0.000775 0.000845 0.000000
0.000786 0.000844 0.000000
0.000789 0.000851 0.000000
0.000801 0.000845 0.000000
0.000792 0.000842 0.000000
0.000802 0.000837 0.000000
0.000811 0.000840 0.000000
0.000818 0.000838 0.000000
0.000817 0.000833 0.000000
0.000823 0.000834 0.000000
0.000828 0.000832 0.000000
0.000832 0.000828 0.000000
0.000049 0.000445 0.000000
0.000052 0.000450 0.000000
0.000048 0.000456 0.000000
0.000054 0.000458 0.000000
0.000047 0.000464 0.000000
0.000050 0.000472 0.000000
0.000051 0.000467 0.000000
0.000051 0.000477 0.000000
0.000047 0.000488 0.000000
0.000052 0.000491 0.000000
0.000058 0.000492 0.000000
0.000053 0.000498 0.000000
0.000604 0.000834 0.000000
0.000703 0.000876 0.000000
0.000716 0.000871 0.000000
0.000739 0.000860 0.000000
0.000749 0.000853 0.000000
0.000755 0.000852 0.000000
0.000758 0.000847 0.000000
0.000762 0.000850 0.000000
0.000773 0.000841 0.000000
0.000771 0.000847 0.000000
0.000779 0.000841 0.000000
0.000787 0.000839 0.000000
0.000794 0.000838 0.000000
0.000798 0.000840 0.000000
0.000806 0.000836 0.000000
0.000809 0.000829 0.000000
0.000810 0.000834 0.000000
0.000822 0.000829 0.000000
0.000826 0.000827 0.000000
0.000830 0.000824 0.000000
0.000054 0.000445 0.000000
0.000057 0.000450 0.000000
0.000053 0.000454 0.000000
0.000053 0.000463 0.000000
0.000058 0.000467 0.000000
0.000054 0.000472 0.000000
0.000057 0.000477 0.000000
0.000057 0.000481 0.000000
0.000052 0.000483 0.000000
0.000057 0.000486 0.000000
0.000056 0.000497 0.000000
0.000059 0.000496 0.000000
0.000623 0.000848 0.000000
0.000707 0.000883 0.000000
0.000708 0.000875 0.000000
[...]
POINT_DATA 10428
SCALARS density float 1
LOOKUP_TABLE default
4426.498629
4427.230560
4427.547654
4425.129185
4432.245691
4428.604326
4430.196894
4429.011000
4436.314691
4422.637992
4430.960361
4401.432205
4421.357184
4429.614896
4429.809726
4428.957315
4438.649025
4432.502691
4442.691180
4438.956233
4434.132167
4426.314724
4407.666634
4443.986176
4435.478332
4422.671552
4438.326463
4446.174867
4416.600450
4450.829265
4429.866249
4418.729887
4429.193857
4431.662010
4428.453317
4430.950209
4431.584195
4420.380301
4431.700302
4426.389304
4410.278559
4421.963637
4454.591234
4408.005600
4418.706115
4435.731436
4411.104215
4425.632819
4412.658549
4426.201426
4446.401791
4446.537552
4433.307483
4395.547932
4423.638812
4397.211158
4413.313310
4393.682550
4412.296756
4468.243297
4410.544885
4434.764547
4395.347265
4405.498233
4425.853018
4426.497804
4425.784241
4426.588129
4420.910409
4418.510766
4451.980909
4385.070660
4482.091452
4367.625468
4456.113991
4396.900410
4430.038498
4441.647930
4418.809075
4404.598379
4423.967796
4412.026858
4471.995569
4393.612181
4417.098051
4401.972030
4410.210993
4466.833156
4423.041976
4413.989569
4460.305486
4414.255647
4432.422323
4431.477043
4465.537648
4410.755583
4426.274183
4436.745118
4446.730446
4424.100592
4450.909816
4400.772355
4469.976969
4378.530919
4479.982163
4383.120295
4522.532471
4401.914832
4437.489903
4401.026185
4424.339370
4430.323150
4452.653076
4467.731153
4423.452905
4443.895400
4393.653706
4433.854494
4432.972924
4441.675831
4409.202706
4465.263766
4435.181164
4487.800280
4433.860957
4355.173167
4496.055619
4457.450874
4435.474827
4433.027607
4451.360725
4421.278521
4434.206921
4436.473705
4418.952610
4456.133958
4473.772813
4366.703778
4469.869423
4435.810560
4419.420822
4418.903473
4448.015800
4441.448702
4470.167684
4449.254441
4421.647128
4431.912321
4464.925101
4412.233657
4428.767876
4394.134030
4444.040546
4392.414582
4414.641288
4463.222383
4466.229657
4421.856141
4350.753721
4417.465689
4429.197190
4430.177032
4436.474796
4421.285949
4438.298037
4408.092391
4475.743407
4348.596876
4434.802486
4477.819464
4407.184140
4429.029800
4420.913368
4431.557365
4420.584362
4378.398056
4479.611942
4419.755908
4413.166355
4439.802227
4432.964587
4440.017057
4453.636695
4416.633652
4432.653100
4452.825754
4381.458973
4479.840763
4436.708062
4408.694219
4457.832396
4413.818581
4427.068928
4431.589594
4420.648339
4439.456532
4421.892960
4441.775686
4409.605515
4456.791072
4440.135059
4410.388295
4455.841219
4423.697912
4420.164130
4406.523411
4443.936431
4421.085864
4408.147033
4422.345657
4443.825991
4453.154767
4448.499804
4440.310932
4443.436038
4389.339673
4418.022396
4420.321271
4394.988300
4414.973010
4440.985505
4377.438690
4437.192737
4436.092418
4431.137159
4418.646102
4439.719896
4442.969370
4442.404913
4421.383084
4450.169360
4428.137702
4419.958943
4421.502066
4421.119092
4443.160699
4418.452838
4417.704985
4437.199547
4424.558262
4442.985635
4427.935333
4438.750089
4425.525851
4413.807948
4432.151190
4412.052252
4458.046741
4425.724855
4449.782048
4448.812926
4465.407425
4450.295339
4454.096445
4401.640686
4420.521322
4429.924272
4427.291927
4426.853159
4435.830765
4422.119159
4436.014268
4444.039332
4416.949721
4447.603526
4433.561383
4432.945165
4422.206645
4430.069453
4428.046477
4408.533238
4416.114919
4404.556650
4423.500143
4440.192651
4432.035806
4433.385055
4439.408332
4446.590993
4402.044184
4399.476613
4400.293517
4452.461901
4448.319078
4408.367131
4405.511558
4421.536895
4439.044457
4438.427914
4416.246142
4422.716160
4428.066409
4401.581762
4431.889437
4439.276263
4421.741213
4442.491329
4423.169501
4467.072427
4434.259107
4435.383805
4443.056657
4380.982290
4460.473646
4416.921267
4422.818594
4422.365593
4445.796895
4420.652236
4466.571682
4425.795815
4438.933039
4469.270939
4445.782644
4441.860486
4441.143905
4412.023054
4448.339234
4424.353818
4424.899635
4431.953608
4420.924333
4424.773472
4401.531546
4445.869663
4445.567423
4425.816837
4380.010113
4382.942093
4429.559841
4509.860967
4410.496377
4437.830967
4438.508427
4427.475118
4450.236825
4452.679632
4418.584748
4437.704614
4447.605548
4438.838968
4422.690684
4442.637573
4397.644894
4426.935180
4438.437282
4439.714198
4451.282648
4401.606599
4419.340852
4426.717329
4430.161338
4437.135674
4426.701348
4447.365834
4419.091923
4414.362781
4457.515991
4426.889368
4454.522060
4471.540791
4367.536139
4416.949146
4404.993589
4431.423348
4429.705470
4424.123143
4429.582531
4445.584703
4416.984252
4416.091218
4413.498005
4416.824477
4409.226807
4429.372230
4390.872633
4433.137550
4447.921321
4443.879490
4418.910233
4432.042193
4435.802319
4429.768569
4430.279419
4426.583892
4432.192765
4419.332966
4387.769179
4446.789510
4437.528114
4402.876248
4420.012861
4442.533289
4419.055805
4438.992765
4431.070905
4405.994839
4430.001659
4451.452812
4386.148753
4398.103214
4449.214259
4419.858143
4447.519398
4440.407716
4416.235079
4451.729522
4420.650258
4393.269515
4438.374420
4418.203453
4425.038104
4433.262907
4437.582502
4425.755778
4435.336477
4439.467375
4419.140341
4447.592145
4393.339144
4456.875866
4458.629659
4440.961957
4393.550952
4460.941948
4375.502815
4461.409276
4426.803000
4415.786212
4425.888649
4416.797545
4429.265724
4444.471148
4408.924143
4427.519142
4408.703783
4405.962643
4447.940822
4433.635457
4433.313252
4412.324423
4427.111623
4439.274475
4438.469415
4410.101336
4450.935430
4415.157761
4429.234198
4426.125302
4423.992896
4432.515678
4437.434240
4469.095469
4443.612023
4413.358827
4458.312292
4404.114761
4413.058011
4436.524218
4450.804084
4424.376344
4424.537874
4432.190494
4457.051128
4454.052632
4434.919812
4453.007251
4460.361816
4362.371826
4445.356822
4445.752808
4439.702908
4432.545997
4422.455220
4427.775049
4412.835237
4420.111628
4413.922595
4439.509297
4434.446910
4431.236410
4438.044233
4444.257578
4411.912644
4389.098963
4433.629675
4467.369494
4432.875252
4460.714609
4368.857607
4400.143330
4454.256871
4436.167060
4413.056647
4422.168099
4432.260942
4431.545731
4454.675604
4401.818819
4436.825203
4441.266606
4414.007968
4434.155426
4456.709694
4398.268537
4436.514248
4421.544032
4426.576237
4436.596013
4426.090563
4425.833225
4418.442597
4411.774011
4409.909308
4435.833194
4426.883004
4402.590848
4441.002072
4406.254766
4485.771616
4425.163082
4496.188977
4404.403345
4428.200286
4430.669378
4417.281927
4436.322259
4433.966518
4450.972956
4432.220316
4430.676405
4446.061809
4442.642132
4418.418834
4451.749495
4414.625240
4426.647306
4422.590538
4433.312471
4452.610820
4409.917704
4451.178745
4427.694251
4441.657610
4447.774581
4430.011007
4427.034327
4409.236002
4418.761823
4437.823511
4391.418303
4427.341407
4408.316256
4382.840764
4437.993842
4486.655928
4429.186321
4431.710670
4444.711134
4452.496521
4437.747835
4436.593508
4479.783689
4473.211202
4414.334441
4449.617282
4443.586309
4442.864014
4418.549687
4433.554748
4425.406184
4403.268782
4445.879604
4434.264341
4419.300373
4430.403141
4424.688031
4433.632681
4414.064184
4461.651792
4449.221700
4440.017074
4442.829139
4453.053837
4432.073678
4402.645885
4412.401186
4431.375341
4416.472336
4416.244249
4427.288252
4431.740479
4434.661068
4430.013922
4451.826365
4427.368495
4425.494937
4430.731241
4410.438804
4404.359856
4427.007613
4447.284815
4440.180647
4440.231426
4445.116486
4419.594859
4430.876710
4421.015890
4445.656493
4423.366922
4464.661050
4441.276808
4384.095408
4412.785395
4396.752979
4393.658897
4459.341491
4444.738633
4426.575371
4431.997534
4432.776091
4437.565517
4443.794245
4454.454734
4446.014159
4457.702223
4414.620727
4423.119941
4494.764274
4423.968548
4447.766665
4435.613679
4439.412871
4431.624369
4412.559108
4433.986520
4395.196244
4438.389230
4442.405640
4433.929233
4420.010456
4395.676900
4436.166283
4406.742240
4431.831415
4425.083165
4423.452844
4418.192939
4441.694685
4490.422427
4399.173515
4500.360265
4426.921020
4422.892650
4434.614354
4464.351677
4441.656512
4441.613498
4425.327948
4436.975382
4417.242675
4452.197721
4464.751926
4453.955924
4441.388234
4432.294519
4421.380533
4464.632138
4456.096498
4438.417895
4402.897518
4436.807572
4445.300400
4432.512667
4428.815117
4434.544544
4448.688113
4433.751214
4432.289672
4409.121217
4438.867961
4386.929957
4434.277135
4432.827051
4418.783576
4429.718124
4422.827545
4441.798938
4455.138480
4428.437093
4444.061011
4444.484489
4402.829334
4352.574657
4425.719158
4422.008812
4455.609579
4419.602271
4448.175123
4401.768949
4418.970333
4418.383353
4430.483282
4439.406593
4408.749889
4460.490564
4427.058033
4402.864488
4441.115139
4410.132955
4430.418741
4405.347881
4449.594288
4409.815610
4390.966455
4463.108959
4426.601514
4436.866237
4396.367047
4457.765264
4457.418729
4431.602136
4427.956784
4416.304600
4417.139447
4380.637973
4375.843125
4429.998121
4378.504956
4381.752849
4447.127558
4429.150777
4449.845499
4414.562866
4421.964966
4417.141783
4434.602174
4413.852739
4408.177250
4428.646206
4438.378032
4409.889409
4407.725567
4446.015474
4464.135305
4444.168318
4423.845488
4426.013059
4433.471709
4444.535086
4408.784557
4383.605196
4391.378461
4438.126855
4438.154355
4483.452128
4421.199795
4446.620040
4437.719637
4446.151170
4461.950561
4474.518113
4431.920026
4428.951765
4441.851243
4412.577401
4461.888893
4419.869467
4423.932688
4429.582285
4429.300810
4429.507232
4429.575927
4429.465736
4429.597704
4429.668228
4430.147283
4430.664263
4431.178240
4431.194823
4430.944133
4430.588747
4430.075033
4425.956070
4429.190543
4429.201624
4429.921643
4430.527101
4431.214846
4431.655055
4431.751013
4431.355539
4430.147746
4429.416196
4429.330482
4429.918047
4430.557503
4430.838751
4427.340929
4428.909598
4428.763363
4428.835806
4428.896957
4428.238501
4428.313984
4428.206590
4429.052670
4430.459528
4431.668921
4431.599341
4430.595403
4430.292990
4428.739295
4428.026534
4428.992744
4429.305176
4429.540156
4430.417494
4430.944518
4431.661052
4431.670066
4431.176446
4429.689365
4428.355828
4428.349454
4428.701491
4429.304633
4430.193540
4428.567158
4428.982695
4428.966785
4428.757285
4428.610546
4427.969016
4427.837400
4427.530341
4428.687469
4429.634532
4431.641846
4430.820568
4430.923129
4428.595789
4429.294017
4428.672269
4429.122365
4429.427300
4429.261192
4430.525684
4430.440649
4431.708341
4431.159052
4431.114027
4429.016472
4428.264717
4427.347814
4428.877660
4428.131169
4429.180594
4428.714998
4428.945878
4429.178733
4428.557430
4428.574602
4427.721117
4427.616455
4427.170522
4428.320378
4429.413219
4431.090779
4430.837315
4429.763552
4428.296259
4428.256409
4428.815302
4429.170542
4429.350885
4429.307999
4430.239456
4430.413042
4431.340338
4431.114435
4430.730186
4428.874536
4428.057234
4427.220613
4428.751112
4428.269466
4428.765004
4428.493843
4428.982008
4429.086345
4428.345036
4428.612327
4427.374482
4427.616120
4426.693027
4428.208185
4429.084084
4430.970426
4430.890284
4430.705387
4429.138239
4431.387034
4428.699005
4429.129566
4429.242228
4429.272718
4429.999696
4430.354403
4430.984830
4431.001819
4430.493543
4428.544690
4428.208837
4426.892083
4429.595557
4429.041677
4429.905170
4428.401880
4429.110093
4428.741530
4428.524788
4428.129584
4427.465732
4427.125961
4426.572731
4427.767707
4429.021063
4430.227922
4431.027670
4429.415761
4429.267234
4428.673272
4428.483064
4429.139748
4429.019164
4429.165561
4429.776908
4430.179680
4430.588640
4431.100637
4429.967282
4428.684604
4427.506950
4426.704432
4427.975706
4427.878674
4428.088563
4428.422448
4428.953243
4428.708077
4428.464875
4427.840039
4427.420089
4426.909825
4426.322442
4427.556172
4428.534810
4430.039181
4430.393827
4429.816787
4428.590008
4429.676657
4451.926841
4411.998249
4418.816838
4443.541350
4409.683115
4463.386251
4432.313424
4436.036828
4386.735638
4439.376945
4430.219584
4402.364106
4423.442216
4462.060089
4423.605234
4428.209354
4428.353934
4428.952224
4428.959385
4428.773281
4429.831730
4429.693882
4430.692253
4430.676221
4429.977336
4428.081315
4427.374395
4426.398497
4427.712196
4428.784137
4431.015816
4441.331945
4405.847095
4405.760013
4393.033388
4405.972381
4442.920254
4433.128964
4366.659085
4421.351421
4435.513377
4412.380677
4418.803467
4441.860013
4450.158381
4403.622256
4392.482155
4427.943704
4428.731558
4428.725033
4428.001652
4427.952837
4426.881579
4426.982821
4425.809683
4427.156915
4428.076957
4429.514454
4429.664696
4429.574757
4427.808644
4428.788614
4435.287881
4429.549387
4422.404793
4442.810161
4404.707326
4444.740476
4417.389108
4416.099531
4403.166530
4437.822175
4422.713300
4404.863231
4434.653024
4430.935821
4458.924166
4437.564538
4428.203447
4428.772885
4428.730434
4428.651946
4429.358389
4429.599484
4430.214062
4430.533568
4429.628018
4427.553575
4427.192482
4425.554947
4427.125972
4425.971216
4429.660923
4419.830797
4400.892476
4425.620778
4389.584697
4410.532540
4445.932729
4427.539836
4441.576234
4446.412156
4434.980623
4428.658066
4429.127436
4388.081304
4388.907155
4417.550202
4449.332259
4427.748219
4428.622743
4428.639584
4427.542882
4428.034049
4426.383451
4427.070228
4425.341098
4426.881651
4427.701405
4428.905528
4428.921831
4428.246962
4425.407245
4424.638311
4437.516133
4450.399394
4429.988421
4465.728820
4447.854461
4431.276963
4445.120968
4430.204974
4422.305830
4410.076950
4422.395868
4420.728651
4411.866421
4442.968839
4427.448231
4421.012658
4427.828469
4428.768304
4428.387064
4428.732137
4428.946346
4429.660039
4429.926840
4430.554696
4429.464751
4427.293413
4426.828286
4425.405248
4426.012677
4425.868150
4424.737219
4420.548812
4417.555942
4447.627130
4432.564014
4490.222347
4386.275944
4440.123868
4434.221578
4441.183631
4415.353740
4397.661494
4419.484617
4410.577303
4435.527231
4444.071826
4419.931320
4427.947452
4428.630125
4428.407310
4427.772179
4427.628634
4426.868402
4426.612272
4425.687957
4426.218945
4427.918159
4428.179725
4428.965507
4427.125159
4426.061915
4426.421963
4447.351112
4426.058204
4437.115995
4400.627191
4364.372783
4447.495573
4429.175882
4431.901566
4427.051032
4405.932467
4433.874511
4464.985726
4447.853925
4423.233997
4467.221528
4395.544523
4427.712197
4428.574705
4428.475389
4428.327510
4429.175496
4429.272958
4429.906435
4430.473584
4429.419074
4427.219671
4426.942382
4425.454514
4426.658736
4426.697531
4427.028282
4424.327773
4432.320375
4440.809653
4448.858468
4418.912589
4475.333399
4406.248736
4417.632157
4427.765544
4423.952360
4447.829158
4392.199216
4394.529272
4404.897281
4423.817581
4442.228159
4427.776021
4428.376837
4428.493904
4427.591436
4427.810244
4426.331637
4427.261236
4424.762386
4426.793478
4427.052694
4428.716238
4428.868490
4428.108083
4427.425048
4427.785107
4420.003369
4431.116645
4396.060515
4412.265922
4447.700079
4440.598215
4433.457807
4425.270419
4374.469420
4448.532008
4414.722080
4378.194786
4430.655141
4404.066727
4420.392206
4398.787781
4427.767132
4428.217257
4428.769900
4427.629006
4429.482038
4428.731343
4429.788106
4430.304004
4429.296053
4426.920247
4427.406443
4425.292357
4428.135627
4426.900354
4429.755610
4428.828674
4419.880606
4449.410233
4454.849201
4387.588613
4416.243719
4430.746726
4445.847657
4417.378832
4437.489994
4426.583796
4432.394865
4368.218924
4474.410166
4408.372447
4439.233579
4427.592486
4428.294407
4428.389823
4427.573699
4427.570298
4426.051227
4427.194077
4424.404572
4426.369991
4426.830308
4428.282546
4428.782253
4427.995061
4426.228617
4429.636282
4429.589019
4426.615311
4458.697186
4453.373261
4441.481882
4432.433057
4440.406574
4467.993487
4403.044151
4441.363636
4442.619810
4437.546429
4444.611942
4357.632611
4409.070973
4382.229052
4427.790959
4428.344403
4428.279849
4427.754793
4428.745261
4428.760754
4429.293847
4430.086727
4429.325533
4426.727839
4427.324902
4424.956704
4427.356267
4426.522777
4424.992107
4402.943556
4435.895248
4405.940705
4398.201656
4407.067694
4419.889080
4450.262237
4451.542168
4463.998689
4414.697263
4444.032389
4395.217143
4418.581260
4418.001495
4423.355007
4453.361204
4427.441471
4428.218716
4428.441574
4427.045931
4427.774211
4425.912580
4427.075758
4424.917488
4425.865840
4426.900354
4427.671294
4428.309287
4425.811131
4426.095557
4425.323969
4421.126972
4444.834688
4417.499241
4425.348773
4424.804615
4443.803352
4439.764560
4435.017063
4422.694404
4418.459452
4427.203462
4457.695197
4423.553796
4441.771716
4515.720034
4453.168739
4427.595622
4428.649306
4427.590071
4428.370451
4428.005951
4429.541781
4428.782640
4430.471670
4429.014624
4427.180381
4426.092570
4425.417147
4426.479532
4425.319783
4427.826647
4443.266863
4460.594697
4406.737622
4456.179055
4438.773558
4422.110542
4423.749925
4431.457967
4408.256482
4407.300313
4428.510262
4437.394543
4427.922707
4435.367895
4414.653532
4453.243358
4427.221947
4428.580246
4427.930394
4427.754355
4427.173934
4426.821326
4426.136251
4425.399598
4425.158143
4426.257344
4427.409347
4427.115286
4425.928387
4425.506948
4423.977276
4442.526478
4406.263639
4421.719195
4414.063030
4453.079314
4431.819191
4422.063778
4446.216114
4419.881708
4447.830893
4419.402188
4398.736804
4415.114818
4420.648862
4405.178529
4399.935676
4427.424639
4428.300109
4427.996505
4427.502759
4428.842349
4428.581265
4429.151813
4429.962206
4429.244092
4427.162428
4426.315402
4425.531454
4425.727883
4426.295013
4425.100657
4410.665760
4434.505180
4418.607480
4425.702664
4368.470690
4441.442203
4480.843031
4424.523611
4399.925890
4472.199482
4407.769517
4437.495925
4449.923979
4422.840038
4396.448624
4432.091597
4427.510741
4428.275514
4428.237502
4427.903021
4427.040500
4426.910968
4426.711012
4425.235527
4425.803166
4426.004431
4427.216368
4427.139798
4426.064677
4424.187344
4426.803521
4412.135462
4411.499116
4413.344109
4452.162580
4388.183821
4431.311060
4440.789292
4444.336585
4433.269387
4447.658394
4448.055487
4418.902691
4394.236200
4448.310789
4436.020850
4421.885629
4427.498206
4428.080679
4427.961041
4426.932013
4428.546191
4427.825661
4429.125958
4429.458350
4428.567516
4426.515678
4426.809178
4423.448300
4426.660411
4424.498200
4423.780015
4420.570311
4404.564129
4417.538444
4436.529889
4384.956173
4409.221895
4448.477900
4428.200152
4467.433940
4463.740315
4440.092494
4410.105554
4444.946267
4434.263387
4463.959616
4433.280199
4427.287324
4427.459488
4428.910203
4425.955848
4428.111489
4424.518320
4427.584085
4422.753470
4425.934477
4424.556887
4426.367336
4427.233440
4424.099507
4422.890147
4427.254743
4425.599819
4453.170013
4416.963963
4462.027163
4381.049420
4435.511707
4423.768189
4432.415299
4425.119351
4462.563929
4444.762447
4449.179577
4423.616522
4459.091974
4369.377314
4418.078226
4427.334779
4428.140918
4427.594225
4427.308168
4427.568965
4428.530467
4428.849178
4430.053791
4429.225211
4428.012265
4427.392989
4424.472218
4425.726834
4423.346006
4423.379297
4422.343334
4421.013699
4413.728094
4377.905370
4419.809068
4451.513657
4614.623566
4444.649380
4440.929098
4438.490239
4395.618568
4418.559275
4383.665813
4427.956034
4361.747065
4438.699883
4427.091753
4428.312625
4427.581576
4427.579580
4427.438950
4426.776049
4426.957956
4425.757988
4426.393407
4425.608948
4427.593088
4426.083612
4424.462968
4423.518761
4424.425445
4423.304697
4451.392547
4440.538879
4424.473859
4446.029404
4418.571522
4422.551948
4477.852331
4380.451311
4440.748949
4426.519116
4419.537432
4438.686984
4417.573706
4540.759880
4414.224959
4426.964206
4428.107656
4428.062402
4427.024510
4428.268660
4428.555513
4428.264644
4430.001742
4428.795751
4427.298198
4425.274198
4425.626061
4425.055221
4424.367155
4422.805488
4425.305077
4441.303293
4446.617361
4406.495203
4472.085455
4461.019688
4431.794179
4382.567621
4450.403446
4434.409562
4450.793487
4429.637120
4449.576723
4418.618833
4315.080342
4433.511705
4427.472124
4428.767568
4427.593585
4428.940889
4426.394377
4427.353292
4425.395436
4425.672640
4423.773549
4424.790115
4424.662468
4424.141099
4423.772342
4424.335496
4421.779852
4430.316259
4423.202310
4407.503895
4430.389926
4461.197816
4407.964944
4445.591964
4442.411757
4437.462442
4432.940111
4416.745693
4456.813485
4445.427942
4383.636688
4391.839111
4402.740455