# vtk DataFile Version 2.0
mfree iwf
ASCII

DATASET UNSTRUCTURED_GRID
POINTS 9096 float
0.000000 0.000445 0.000000
0.000000 0.000450 0.000000
0.000000 0.000455 0.000000
0.000000 0.000460 0.000000
0.000000 0.000465 0.000000
0.000001 0.000470 0.000000
0.000001 0.000475 0.000000
0.000001 0.000480 0.000000
0.000001 0.000485 0.000000
0.000001 0.000490 0.000000
0.000000 0.000496 0.000000
0.000002 0.000500 0.000000
0.000238 0.000646 0.000000
0.000240 0.000654 0.000000
0.000257 0.000697 0.000000
0.000260 0.000703 0.000000
0.000260 0.000703 0.000000
0.000263 0.000707 0.000000
0.000267 0.000714 0.000000
0.000266 0.000713 0.000000
0.000271 0.000724 0.000000
0.000285 0.000748 0.000000
0.000290 0.000752 0.000000
0.000293 0.000755 0.000000
0.000296 0.000758 0.000000
0.000301 0.000761 0.000000
0.000304 0.000764 0.000000
0.000309 0.000768 0.000000
0.000312 0.000770 0.000000
0.000317 0.000774 0.000000
0.000322 0.000779 0.000000
0.000342 0.000796 0.000000
0.000005 0.000445 0.000000
0.000005 0.000450 0.000000
0.000005 0.000455 0.000000
0.000005 0.000460 0.000000
0.000005 0.000465 0.000000
0.000005 0.000470 0.000000
0.000006 0.000475 0.000000
0.000006 0.000480 0.000000
0.000005 0.000485 0.000000
0.000007 0.000490 0.000000
0.000004 0.000496 0.000000
0.000006 0.000499 0.000000
0.000256 0.000693 0.000000
0.000266 0.000700 0.000000
0.000276 0.000729 0.000000
0.000280 0.000735 0.000000
0.000282 0.000739 0.000000
0.000285 0.000742 0.000000
0.000287 0.000744 0.000000
0.000291 0.000747 0.000000
0.000296 0.000751 0.000000
0.000300 0.000755 0.000000
0.000306 0.000759 0.000000
0.000310 0.000763 0.000000
0.000316 0.000767 0.000000
0.000321 0.000773 0.000000
0.000324 0.000775 0.000000
0.000329 0.000778 0.000000
0.000333 0.000786 0.000000
0.000336 0.000789 0.000000
0.000333 0.000787 0.000000
0.000341 0.000794 0.000000
0.000010 0.000445 0.000000
0.000011 0.000450 0.000000
0.000010 0.000455 0.000000
0.000011 0.000460 0.000000
0.000010 0.000466 0.000000
0.000011 0.000469 0.000000
0.000011 0.000476 0.000000
0.000011 0.000480 0.000000
0.000010 0.000486 0.000000
0.000012 0.000490 0.000000
0.000009 0.000497 0.000000
0.000011 0.000498 0.000000
0.000260 0.000692 0.000000
0.000269 0.000701 0.000000
0.000273 0.000716 0.000000
0.000275 0.000722 0.000000
0.000276 0.000726 0.000000
0.000279 0.000731 0.000000
0.000283 0.000726 0.000000
0.000289 0.000735 0.000000
0.000290 0.000740 0.000000
0.000295 0.000746 0.000000
0.000299 0.000747 0.000000
0.000303 0.000754 0.000000
0.000308 0.000753 0.000000
0.000314 0.000758 0.000000
0.000314 0.000763 0.000000
0.000320 0.000769 0.000000
0.000332 0.000780 0.000000
0.000333 0.000782 0.000000
0.000340 0.000789 0.000000
0.000346 0.000790 0.000000
0.000015 0.000445 0.000000
0.000016 0.000450 0.000000
0.000015 0.000456 0.000000
0.000016 0.000459 0.000000
0.000015 0.000465 0.000000
0.000017 0.000471 0.000000
0.000014 0.000475 0.000000
0.000017 0.000480 0.000000
0.000015 0.000485 0.000000
0.000017 0.000489 0.000000
0.000015 0.000495 0.000000
0.000017 0.000498 0.000000
0.000026 0.000500 0.000000
0.000269 0.000705 0.000000
0.000275 0.000717 0.000000
0.000279 0.000717 0.000000
0.000286 0.000730 0.000000
0.000282 0.000735 0.000000
0.000294 0.000736 0.000000
0.000295 0.000740 0.000000
0.000303 0.000741 0.000000
0.000303 0.000749 0.000000
0.000314 0.000752 0.000000
0.000309 0.000757 0.000000
0.000319 0.000761 0.000000
0.000323 0.000765 0.000000
0.000326 0.000768 0.000000
0.000328 0.000771 0.000000
0.000333 0.000774 0.000000
0.000339 0.000779 0.000000
0.000340 0.000783 0.000000
0.000348 0.000787 0.000000
0.000020 0.000445 0.000000
0.000021 0.000450 0.000000
0.000020 0.000456 0.000000
0.000022 0.000461 0.000000
0.000019 0.000466 0.000000
0.000022 0.000468 0.000000
0.000020 0.000475 0.000000
0.000022 0.000479 0.000000
0.000019 0.000486 0.000000
0.000022 0.000490 0.000000
0.000021 0.000497 0.000000
0.000022 0.000499 0.000000
0.000040 0.000500 0.000000
0.000276 0.000703 0.000000
0.000276 0.000709 0.000000
0.000281 0.000713 0.000000
0.000280 0.000723 0.000000
0.000288 0.000725 0.000000
0.000292 0.000732 0.000000
0.000299 0.000742 0.000000
0.000299 0.000735 0.000000
0.000306 0.000745 0.000000
0.000313 0.000743 0.000000
0.000321 0.000750 0.000000
0.000321 0.000756 0.000000
0.000324 0.000760 0.000000
0.000330 0.000763 0.000000
0.000337 0.000769 0.000000
0.000337 0.000774 0.000000
0.000345 0.000778 0.000000
0.000345 0.000783 0.000000
0.000351 0.000784 0.000000
0.000025 0.000445 0.000000
0.000026 0.000450 0.000000
0.000026 0.000455 0.000000
0.000025 0.000458 0.000000
0.000025 0.000466 0.000000
0.000026 0.000471 0.000000
0.000024 0.000476 0.000000
0.000027 0.000480 0.000000
0.000025 0.000485 0.000000
0.000026 0.000489 0.000000
0.000027 0.000492 0.000000
0.000028 0.000500 0.000000
0.000246 0.000672 0.000000
0.000272 0.000707 0.000000
0.000272 0.000711 0.000000
0.000284 0.000720 0.000000
0.000289 0.000720 0.000000
0.000291 0.000727 0.000000
0.000301 0.000727 0.000000
0.000297 0.000729 0.000000
0.000304 0.000737 0.000000
0.000309 0.000741 0.000000
0.000310 0.000748 0.000000
0.000315 0.000747 0.000000
0.000318 0.000754 0.000000
0.000328 0.000759 0.000000
0.000333 0.000768 0.000000
0.000334 0.000763 0.000000
0.000342 0.000774 0.000000
0.000342 0.000769 0.000000
0.000349 0.000778 0.000000
0.000354 0.000780 0.000000
0.000030 0.000445 0.000000
0.000031 0.000450 0.000000
0.000030 0.000458 0.000000
0.000033 0.000461 0.000000
0.000029 0.000464 0.000000
0.000031 0.000469 0.000000
0.000031 0.000473 0.000000
0.000031 0.000477 0.000000
0.000031 0.000485 0.000000
0.000032 0.000492 0.000000
0.000034 0.000497 0.000000
0.000031 0.000499 0.000000
0.000049 0.000500 0.000000
0.000271 0.000696 0.000000
0.000284 0.000708 0.000000
0.000286 0.000714 0.000000
0.000289 0.000716 0.000000
0.000294 0.000723 0.000000
0.000302 0.000731 0.000000
0.000308 0.000735 0.000000
0.000309 0.000731 0.000000
0.000317 0.000740 0.000000
0.000319 0.000745 0.000000
0.000325 0.000752 0.000000
0.000330 0.000750 0.000000
0.000330 0.000756 0.000000
0.000335 0.000758 0.000000
0.000339 0.000765 0.000000
0.000348 0.000767 0.000000
0.000347 0.000772 0.000000
0.000352 0.000774 0.000000
0.000357 0.000777 0.000000
0.000035 0.000445 0.000000
0.000035 0.000450 0.000000
0.000038 0.000454 0.000000
0.000034 0.000456 0.000000
0.000035 0.000466 0.000000
0.000037 0.000471 0.000000
0.000033 0.000479 0.000000
0.000042 0.000479 0.000000
0.000035 0.000484 0.000000
0.000035 0.000488 0.000000
0.000038 0.000491 0.000000
0.000036 0.000498 0.000000
0.000238 0.000632 0.000000
0.000245 0.000669 0.000000
0.000281 0.000701 0.000000
0.000289 0.000710 0.000000
0.000297 0.000718 0.000000
0.000299 0.000716 0.000000
0.000299 0.000724 0.000000
0.000306 0.000726 0.000000
0.000312 0.000737 0.000000
0.000314 0.000733 0.000000
0.000322 0.000741 0.000000
0.000327 0.000744 0.000000
0.000326 0.000747 0.000000
0.000340 0.000754 0.000000
0.000340 0.000760 0.000000
0.000345 0.000759 0.000000
0.000345 0.000765 0.000000
0.000351 0.000767 0.000000
0.000355 0.000771 0.000000
0.000360 0.000773 0.000000
0.000040 0.000445 0.000000
0.000040 0.000450 0.000000
0.000038 0.000460 0.000000
0.000042 0.000457 0.000000
0.000041 0.000465 0.000000
0.000040 0.000470 0.000000
0.000043 0.000475 0.000000
0.000037 0.000476 0.000000
0.000042 0.000487 0.000000
0.000043 0.000492 0.000000
0.000042 0.000497 0.000000
0.000045 0.000498 0.000000
0.000238 0.000539 0.000000
0.000265 0.000695 0.000000
0.000277 0.000698 0.000000
0.000293 0.000702 0.000000
0.000294 0.000714 0.000000
0.000302 0.000720 0.000000
0.000307 0.000721 0.000000
0.000310 0.000726 0.000000
0.000318 0.000730 0.000000
0.000319 0.000738 0.000000
0.000323 0.000735 0.000000
0.000330 0.000742 0.000000
0.000333 0.000747 0.000000
0.000339 0.000749 0.000000
0.000335 0.000753 0.000000
0.000344 0.000756 0.000000
0.000350 0.000760 0.000000
0.000354 0.000763 0.000000
0.000358 0.000767 0.000000
0.000363 0.000769 0.000000
0.000045 0.000445 0.000000
0.000046 0.000450 0.000000
0.000045 0.000455 0.000000
0.000046 0.000461 0.000000
0.000045 0.000465 0.000000
0.000046 0.000470 0.000000
0.000046 0.000479 0.000000
0.000040 0.000483 0.000000
0.000051 0.000485 0.000000
0.000046 0.000483 0.000000
0.000048 0.000493 0.000000
0.000051 0.000498 0.000000
0.000238 0.000545 0.000000
0.000255 0.000690 0.000000
0.000281 0.000707 0.000000
0.000294 0.000709 0.000000
0.000297 0.000708 0.000000
0.000306 0.000715 0.000000
0.000313 0.000721 0.000000
0.000315 0.000726 0.000000
0.000320 0.000729 0.000000
0.000327 0.000733 0.000000
0.000327 0.000738 0.000000
0.000337 0.000744 0.000000
0.000332 0.000737 0.000000
0.000343 0.000748 0.000000
0.000347 0.000751 0.000000
0.000350 0.000755 0.000000
0.000354 0.000757 0.000000
0.000357 0.000760 0.000000
0.000361 0.000763 0.000000
0.000366 0.000766 0.000000
0.000050 0.000445 0.000000
0.000051 0.000450 0.000000
0.000050 0.000456 0.000000
0.000051 0.000460 0.000000
0.000050 0.000465 0.000000
0.000052 0.000473 0.000000
0.000050 0.000471 0.000000
0.000051 0.000478 0.000000
0.000048 0.000488 0.000000
0.000053 0.000491 0.000000
0.000058 0.000492 0.000000
0.000054 0.000498 0.000000
0.000238 0.000582 0.000000
0.000258 0.000684 0.000000
0.000268 0.000692 0.000000
0.000290 0.000704 0.000000
0.000303 0.000708 0.000000
0.000303 0.000712 0.000000
0.000313 0.000713 0.000000
0.000309 0.000718 0.000000
0.000324 0.000723 0.000000
0.000319 0.000724 0.000000
0.000330 0.000730 0.000000
0.000338 0.000734 0.000000
0.000336 0.000739 0.000000
0.000342 0.000742 0.000000
0.000347 0.000746 0.000000
0.000351 0.000748 0.000000
0.000355 0.000752 0.000000
0.000360 0.000756 0.000000
0.000364 0.000759 0.000000
0.000369 0.000762 0.000000
0.000055 0.000445 0.000000
0.000056 0.000450 0.000000
0.000055 0.000455 0.000000
0.000056 0.000461 0.000000
0.000055 0.000464 0.000000
0.000056 0.000469 0.000000
0.000056 0.000477 0.000000
0.000058 0.000481 0.000000
0.000054 0.000482 0.000000
0.000057 0.000487 0.000000
0.000056 0.000497 0.000000
0.000060 0.000497 0.000000
0.000238 0.000601 0.000000
0.000253 0.000687 0.000000
0.000262 0.000690 0.000000
[...]
POINT_DATA 9096
SCALARS density float 1
LOOKUP_TABLE default
4428.996493
4429.514358
4427.302385
4425.314551
4422.498540
4429.426915
4444.470597
4434.321347
4440.262943
4422.799154
4432.790410
4397.865842
4431.636084
4439.813273
4450.501776
4428.034636
4439.155521
4430.766978
4445.759644
4444.387667
4438.225976
4428.179986
4406.524539
4448.091394
4426.083466
4419.535114
4447.292829
4431.030111
4417.726697
4449.211155
4441.794914
4449.856732
4429.755611
4426.834550
4425.263271
4433.712518
4439.715024
4412.491939
4407.791840
4416.177095
4414.646965
4419.350407
4448.195103
4400.031135
4417.986370
4448.764044
4405.502979
4429.723897
4411.511683
4410.882977
4431.326552
4449.450160
4416.727666
4429.490200
4432.646002
4401.423874
4434.742959
4397.193816
4394.062821
4411.006065
4408.068047
4415.893169
4412.595523
4423.936968
4422.708242
4432.858966
4439.184355
4412.222790
4434.579814
4434.725588
4462.918348
4404.231216
4474.528021
4366.013149
4473.391850
4404.597762
4374.320274
4463.065876
4428.400553
4396.723541
4421.097598
4421.602801
4426.088137
4410.830150
4434.199375
4413.332529
4415.005056
4428.538992
4400.537753
4420.091920
4453.618434
4394.846939
4442.167069
4426.419385
4448.218417
4405.376756
4431.864516
4447.429064
4448.021067
4442.224321
4434.341736
4380.119427
4455.946420
4366.990108
4475.350313
4385.997378
4516.771132
4400.676409
4435.790321
4381.104802
4432.854230
4454.931291
4392.726158
4466.863796
4450.300411
4418.490940
4432.653617
4431.412232
4436.089870
4434.780352
4419.674425
4446.357143
4464.213834
4488.202934
4446.609352
4381.191347
4514.741750
4450.483556
4435.378183
4417.674957
4431.692267
4406.285651
4462.811942
4446.313911
4450.901274
4446.205560
4463.054570
4370.704248
4467.444019
4437.857297
4420.665200
4393.431412
4462.387924
4379.582500
4509.088740
4443.894285
4424.130997
4450.026177
4416.898084
4419.062632
4427.389429
4432.092168
4414.097554
4429.599123
4375.330678
4460.971660
4436.460473
4436.879940
4324.934090
4450.910611
4427.341596
4431.579148
4429.929961
4442.289018
4445.396012
4389.722862
4459.892849
4375.582111
4429.529859
4463.150274
4420.575516
4425.579604
4427.136001
4455.506617
4396.101157
4351.654671
4460.161846
4445.042549
4450.054353
4424.273172
4413.524914
4436.883125
4448.087285
4430.443927
4457.555330
4442.926339
4369.487165
4479.534799
4460.383859
4384.879406
4446.755366
4418.477975
4437.662815
4421.993369
4418.414851
4446.275043
4415.704951
4450.484886
4435.032713
4456.516283
4437.637558
4388.309605
4459.866005
4423.360043
4421.979508
4428.038235
4446.261315
4480.733748
4425.090406
4387.679080
4429.415934
4456.115357
4437.917892
4455.636724
4405.374178
4412.978306
4414.222116
4439.278967
4389.059880
4443.888360
4470.506043
4403.889339
4407.458593
4438.504488
4437.606154
4421.400911
4428.978772
4414.556989
4421.347310
4415.213868
4439.439356
4453.263851
4433.172931
4438.930642
4421.290917
4445.612761
4554.861546
4422.263075
4424.342058
4382.339120
4454.145495
4441.527324
4435.640813
4420.004838
4422.567639
4387.998833
4415.892489
4446.922170
4446.477077
4423.295013
4426.778776
4455.131824
4420.190133
4451.263887
4410.238790
4426.264174
4422.145495
4432.946010
4436.306661
4391.279946
4433.288989
4438.298414
4439.273883
4414.413393
4442.138433
4432.885440
4433.648856
4423.179566
4712.600111
4346.840453
4445.564290
4443.968988
4406.390757
4424.948740
4440.227165
4430.759866
4453.256970
4446.352223
4421.180797
4424.700404
4421.957116
4429.626545
4453.959434
4453.891648
4383.057378
4426.122141
4416.592454
4437.002162
4432.580540
4411.358017
4430.460133
4426.352526
4443.315991
4400.107211
4433.577953
4417.875486
4449.784902
4415.679374
4465.818537
4437.780781
4522.161719
4413.065017
4437.353049
4461.568698
4428.146843
4428.349413
4406.021448
4440.199477
4439.959486
4435.666911
4427.274953
4423.645521
4408.291430
4417.681715
4415.600283
4428.678471
4450.862004
4453.369780
4423.099009
4416.976716
4435.839253
4423.446503
4439.352540
4434.698408
4397.327227
4470.136620
4452.627296
4377.667200
4385.731033
4421.015303
4529.481270
4412.004401
4508.322873
4477.307105
4457.469457
4449.856997
4434.600337
4431.941632
4430.420162
4452.856633
4441.249105
4422.501022
4446.516073
4427.313171
4446.723782
4437.527227
4458.451475
4452.108678
4435.537667
4408.369806
4430.210446
4429.584470
4427.325404
4432.761310
4405.606715
4427.855180
4449.877959
4407.717771
4404.765128
4451.952029
4486.388164
4359.706967
4420.641379
4390.059278
4525.896327
4414.467506
4523.504342
4430.919322
4450.534150
4425.785816
4417.191301
4448.119703
4424.238148
4448.814514
4449.555720
4433.892069
4423.092775
4399.745768
4424.079033
4424.227837
4447.262588
4430.303825
4432.705308
4416.671670
4426.689003
4417.401811
4436.740767
4408.572696
4410.161104
4458.451801
4446.109757
4397.497095
4464.900642
4401.369711
4454.137413
4441.932484
4419.591604
4461.939960
4443.617719
4406.994712
4394.097430
4430.030925
4440.902482
4452.049397
4416.502743
4456.744801
4427.799565
4458.450078
4413.078359
4445.853931
4450.733272
4446.057945
4421.990571
4423.847888
4422.921063
4428.693656
4432.506610
4412.540198
4422.716908
4434.118821
4446.639271
4395.809942
4425.879009
4407.460389
4448.388642
4372.784150
4413.768575
4438.320415
4623.611876
4423.615869
4446.597607
4381.811206
4442.048753
4419.491371
4422.554525
4450.261963
4412.794511
4422.779984
4425.295855
4432.334217
4401.238878
4441.474573
4399.114265
4439.883071
4431.907656
4431.882022
4428.822717
4423.668340
4429.718804
4434.080695
4426.778805
4405.115726
4433.496073
4446.369469
4434.625576
4447.869320
4385.627876
4452.577058
4442.241427
4442.897750
4695.076163
4414.655498
4419.566889
4461.044829
4443.140732
4416.472836
4454.535862
4445.895501
4412.098768
4433.868657
4414.204536
4437.031288
4414.709244
4451.384282
4419.245732
4442.432508
4420.268147
4420.792181
4426.426692
4426.131929
4437.235203
4419.777367
4429.075278
4445.602315
4414.457793
4398.687753
4444.313433
4453.853685
4447.825159
4404.158653
4423.954225
4447.672009
4426.589687
4418.001371
4420.021594
4355.156353
4430.981278
4482.338507
4444.453082
4427.288323
4462.093469
4468.735663
4441.145814
4424.147918
4464.068446
4455.464107
4447.799935
4419.595591
4424.676974
4439.461556
4415.875774
4428.542542
4429.991135
4411.588292
4427.043192
4405.311369
4440.197762
4447.674805
4417.254977
4447.459214
4396.311756
4496.354005
4364.783663
4428.270675
4424.518165
4510.407537
4504.236484
4421.395762
4443.977049
4420.296974
4448.799175
4412.333109
4418.826323
4442.609003
4428.662320
4442.160253
4425.571457
4455.518652
4418.332960
4447.577926
4430.490090
4439.500041
4420.188423
4427.779562
4442.189135
4419.877018
4432.961046
4447.710639
4427.778408
4397.989418
4440.458894
4404.215316
4449.574166
4442.795211
4449.702279
4464.426515
4480.219320
4514.514756
4380.983303
4440.830146
4438.055489
4385.479115
4467.125550
4442.877845
4442.830273
4457.258930
4436.973340
4438.661193
4402.742181
4446.741983
4416.685336
4431.362072
4406.211244
4430.583667
4428.484156
4429.750040
4416.464602
4422.991080
4446.655057
4406.433101
4418.670106
4428.504610
4442.218403
4448.117844
4421.171307
4426.945428
4403.849853
4423.726537
4411.071483
4420.039600
4424.428578
4391.712646
4431.711082
4403.279031
4477.593319
4401.252247
4408.529354
4417.810435
4440.238342
4434.310718
4462.482595
4420.677077
4452.711701
4434.079319
4453.062107
4434.729711
4415.300705
4426.318701
4442.655553
4425.432784
4417.581758
4454.165868
4433.472092
4427.183216
4422.136535
4420.748732
4438.432979
4445.596020
4434.295004
4429.220562
4406.199818
4391.292623
4634.274748
4423.974756
4423.476007
4444.916898
4431.849691
4388.432861
4494.827367
4413.075761
4433.755709
4412.835245
4435.214009
4420.896153
4432.261864
4426.089766
4404.068889
4430.290865
4426.147856
4426.078166
4412.427888
4421.206382
4438.191054
4399.383863
4442.569436
4415.973331
4412.744959
4385.413315
4449.811482
4483.672256
4375.237462
4563.355432
4498.255663
4429.061401
4445.481092
4449.218990
4407.971523
4444.573681
4396.661505
4474.281202
4422.061005
4479.702045
4439.385143
4415.154845
4418.201168
4462.322428
4401.848008
4478.409283
4442.314459
4409.507296
4436.906401
4420.598572
4451.725599
4445.736416
4419.074570
4430.346185
4434.628004
4401.065123
4447.433571
4417.335007
4455.708086
4378.223762
4430.564847
4426.043943
4449.431559
4425.052016
4402.350698
4418.284940
4414.146850
4466.359043
4507.143053
4456.576265
4419.279099
4365.446098
4437.045608
4462.337758
4442.815313
4408.210181
4447.913344
4421.934189
4428.585926
4419.822611
4431.311017
4433.774540
4416.679033
4422.928866
4429.492078
4433.474495
4438.651963
4409.149356
4441.179497
4407.338457
4453.234907
4376.666188
4361.871922
4493.943967
4421.733389
4455.964124
4465.841102
4468.879063
4448.378555
4450.457171
4426.558211
4413.763282
4379.276567
4407.766191
4383.336802
4447.324423
4446.961397
4403.689877
4461.281018
4433.651129
4464.013479
4428.391025
4408.759792
4426.836652
4445.984601
4437.143749
4404.302645
4412.398638
4408.514841
4434.130975
4437.423259
4435.623993
4458.741314
4453.621596
4425.415058
4423.002533
4448.738992
4467.691582
4364.494658
4387.081078
4503.672431
4468.328435
4423.329532
4405.350292
4451.329134
4433.742484
4419.474425
4431.722833
4451.313960
4466.977314
4424.153776
4420.139239
4424.873971
4417.478419
4444.946196
4425.800754
4413.586606
4427.809095
4427.262015
4427.893846
4428.598120
4428.727503
4429.244914
4429.363292
4429.822228
4429.987129
4430.435971
4430.481914
4430.746163
4430.703802
4429.993728
4417.918550
4426.171430
4426.175674
4427.256489
4427.943474
4428.282975
4428.998645
4429.105951
4429.675748
4429.593547
4430.042570
4430.142637
4430.437800
4430.495337
4430.780018
4421.255818
4426.076951
4425.799788
4426.633081
4427.660085
4427.672142
4428.479600
4428.408386
4429.177368
4429.148757
4429.884818
4429.462367
4429.584988
4429.953097
4429.355207
4422.789001
4426.505924
4426.253203
4426.970728
4427.584012
4427.841591
4428.489250
4428.583335
4429.052053
4428.887354
4429.140535
4429.001027
4429.588688
4428.490734
4429.454871
4424.501757
4426.753050
4426.607635
4426.780987
4427.486404
4427.453272
4428.116952
4427.947035
4428.664917
4428.493227
4429.293601
4428.516196
4429.300850
4427.637297
4428.994237
4424.981478
4427.081772
4426.987724
4426.930932
4427.859529
4427.481883
4428.429518
4428.022494
4428.894555
4428.139355
4428.862448
4428.246792
4428.884604
4427.518925
4428.702221
4425.472045
4427.348516
4426.988841
4427.131782
4427.431419
4427.419516
4427.875580
4427.777858
4428.171521
4428.336344
4428.662589
4428.464711
4428.417806
4427.671984
4428.835426
4425.837173
4427.596599
4427.157245
4427.323661
4427.634321
4427.769514
4427.914214
4428.137816
4428.329648
4428.177207
4428.367561
4428.179143
4428.591900
4427.509764
4428.022913
4425.875439
4427.621789
4427.222433
4427.235588
4427.511273
4427.254199
4427.851279
4427.482411
4428.100764
4427.924751
4428.788951
4428.279149
4429.141783
4428.220245
4428.255393
4426.253424
4427.734803
4427.350797
4427.349213
4427.687624
4427.635075
4427.876233
4427.851276
4428.163754
4428.035573
4428.165998
4428.541766
4428.868966
4428.743886
4431.156340
4426.031012
4427.768683
4427.264009
4427.303654
4427.372841
4427.318153
4427.465728
4427.475379
4427.653731
4427.793073
4428.463432
4428.220989
4429.592807
4429.111152
4429.873797
4426.185801
4427.927493
4427.178899
4427.477379
4427.527298
4427.483067
4427.715044
4427.494493
4427.935313
4427.613463
4427.912574
4427.968456
4428.622392
4428.939347
4430.695157
4426.249719
4427.768937
4427.310268
4427.278203
4427.203679
4427.280522
4427.140111
4427.339784
4427.203919
4427.495277
4427.533107
4427.759224
4428.200899
4428.486811
4429.139570
4438.561568
4437.604268
4405.479760
4454.317861
4449.354211
4446.939565
4428.918538
4439.356480
4406.365759
4446.317254
4392.232906
4460.017009
4413.146873
4454.751792
4423.975239
4409.950485
4426.270460
4427.838654
4427.244101
4427.318546
4427.464271
4427.274500
4427.442924
4427.279697
4427.365893
4427.079678
4427.189928
4426.884884
4426.842369
4427.170110
4427.306462
4425.040589
4455.684936
4415.993797
4435.313892
4422.878032
4430.953360
4411.966755
4424.388073
4458.419411
4423.293767
4427.932509
4455.150945
4439.086933
4452.767290
4407.162150
4405.163787
4426.004316
4427.672344
4427.292109
4427.087978
4427.250776
4426.796074
4427.254716
4426.462229
4427.146134
4426.415825
4427.058519
4426.330923
4426.973374
4425.430091
4428.264691
4422.176668
4447.906543
4428.772367
4385.345715
4385.208192
4438.408859
4491.466992
4421.269533
4456.043436
4454.729825
4432.857777
4411.710266
4411.968705
4454.673157
4395.656443
4441.435398
4426.128559
4427.681397
4427.355989
4426.972740
4427.484761
4426.964486
4427.163884
4426.939753
4426.903113
4426.464149
4426.575997
4425.641376
4426.011882
4423.599265
4426.420860
4422.729917
4414.721594
4421.031391
4385.682252
4393.417668
4447.213779
4426.963994
4456.109481
4392.606856
4415.432141
4427.677455
4422.028879
4396.916349
4426.904200
4445.823976
4416.927604
4425.808164
4427.737953
4427.032377
4427.177141
4426.976333
4426.667705
4426.945332
4426.277581
4426.578320
4426.213100
4426.050354
4425.138728
4425.211416
4423.440280
4420.766997
4437.179516
4457.778271
4432.935270
4439.637523
4459.339947
4431.825764
4442.391226
4464.750209
4440.442567
4417.062007
4444.211804
4443.331168
4391.348458
4371.383131
4428.245839
4408.423000
4425.814922
4427.799344
4427.045269
4427.115681
4427.025907
4427.056035
4426.772597
4426.738384
4426.713256
4425.852306
4425.925469
4425.277461
4424.340054
4422.655164
4421.904626
4407.945507
4397.318785
4447.846346
4421.367901
4497.197384
4394.974176
4469.969332
4459.597286
4445.542020
4434.516089
4402.348611
4452.783886
4407.969012
4458.443378
4431.603465
4424.928224
4425.963951
4427.597484
4427.150734
4426.941152
4427.008370
4426.553810
4426.695015
4426.568656
4425.882096
4426.629444
4425.118981
4425.337238
4424.865060
4423.388226
4423.243133
4450.035214
4437.908905
4442.972666
4379.901199
4339.892708
4446.331650
4398.711361
4503.262636
4460.905800
4424.626195
4448.651373
4436.963636
4488.380109
4443.435758
4485.906413
4408.405615
4425.775827
4427.814553
4426.921543
4427.219619
4426.824006
4427.041873
4426.819787
4426.433515
4426.883220
4425.463933
4426.570976
4425.168975
4425.519641
4425.149651
4424.649088
4437.729182
4415.283109
4427.510316
4385.981652
4408.774311
4477.102174
4468.097963
4407.445627
4408.713969
4432.142594
4450.714003
4456.331243
4412.401054
4453.553175
4402.441972
4419.074463
4425.680675
4427.598571
4427.096717
4426.779792
4427.200278
4426.438462
4427.003668
4426.268561
4426.611601
4426.046445
4426.156573
4425.907999
4426.184171
4426.003102
4427.402898
4433.383996
4444.523788
4393.325526
4434.685516
4403.411149
4432.055016
4494.882827
4452.228021
4420.618535
4451.936970
4414.642214
4381.523908
4405.500471
4445.686507
4402.095470
4418.472905
4425.793164
4427.536636
4427.300666
4426.825807
4427.347499
4426.670790
4427.113203
4426.525137
4426.428466
4426.245048
4426.271689
4425.687860
4426.989517
4425.568521
4426.314993
4439.709441
4426.179385
4430.207183
4443.933452
4358.832805
4386.900889
4450.766074
4478.709534
4475.293013
4452.927929
4421.069183
4457.724438
4400.790007
4444.398915
4423.905666
4435.044529
4425.733399
4427.768252
4426.965163
4427.249890
4426.807423
4426.958152
4426.688014
4426.267281
4426.782791
4425.598008
4426.572397
4426.041834
4425.873132
4425.719825
4425.543061
4424.169119
4435.989917
4428.994093
4446.435625
4425.684595
4608.311531
4468.519963
4464.337545
4465.522203
4443.815849
4404.204683
4459.413612
4429.301093
4444.881530
4370.618836
4402.882496
4425.878789
4427.786932
4427.071736
4427.029551
4427.232288
4426.662460
4426.958582
4426.553060
4426.183592
4426.575620
4426.312939
4425.915120
4426.417772
4425.083633
4425.090400
4445.719228
4435.988852
4404.539825
4459.382870
4437.027445
4370.982087
4476.803537
4462.582342
4458.775992
4466.109500
4472.035748
4427.288874
4408.084649
4390.824484
4276.820298
4443.366916
4425.917261
4427.568755
4427.467596
4426.898018
4427.170141
4426.727674
4426.781549
4426.323868
4426.868888
4426.171927
4426.392840
4426.146773
4426.109121
4426.182006
4426.216714
4428.051685
4415.160324
4465.198975
4422.582121
4420.717205
4485.899415
4479.854519
4465.406399
4457.880751
4454.344870
4452.842889
4459.415235
4407.970383
4424.408342
4505.755576
4442.314150
4425.807984
4427.926735
4427.128658
4427.325695
4427.153698
4426.860830
4427.244003
4426.603140
4426.874934
4426.133802
4426.703226
4425.560107
4426.248053
4425.007744
4425.766889
4433.100340
4408.413375
4432.690512
4387.392382
4409.573716
4420.843636
4469.107250
4454.288384
4436.450836
4446.885000
4463.518782
4434.026054
4445.567154
4412.630097
4413.990033
4429.854133
4425.849476
4428.053007
4427.224623
4427.197043
4427.372195
4427.072504
4426.950672
4426.788560
4426.567874
4426.402454
4425.708859
4425.995214
4425.967778
4425.784570
4425.816174
4424.686216
4437.699099
4423.386628
4440.357950
4411.612784
4436.008984
4440.628996
4441.296929
4453.571488
4436.787377
4450.193115
4473.906381
4424.732968
4441.740280
4411.606593
4425.052028
4426.015926
4428.138916
4427.294002
4427.937870
4427.027189
4427.599035
4426.936989
4427.035546
4426.575225
4426.169509
4426.592570
4425.633099
4426.088835
4426.279512
4426.349667
4432.003531
4429.617329
4416.140672
4444.393217
4410.648649
4426.491035
4458.090676
4469.512400
4456.168502
4430.960466
4453.616555
4462.882003
4452.522547
4428.152572
4417.006124
4424.806774
4426.297557
4428.460469
4427.371751
4427.761958
4427.462636
4427.532419
4427.098040
4427.207459
4426.622376
4426.984779
4425.765887
4426.446603
4425.659827
4424.770916
4426.094769
4419.718380
4423.166074
4421.839399
4420.784173
4448.989126
4458.669116
4451.345937
4435.724817
4451.169193
4440.917291
4446.763484
4462.261806
4415.526613
4456.176741
4400.501144
4421.371865
4426.458335
4428.337719
4427.804779
4427.884296
4427.794395
4427.579388
4427.487195
4427.200526
4426.941494
4426.332000
4426.379468
4425.783855
4424.764725
4424.526781
4423.890878
4423.938336
4413.836089
4427.286440
4429.289628
4420.641232
4400.980357
4433.848128
4417.883212
4444.528471
4437.189703
4455.299629
4433.421645
4460.469325
4470.806474
4459.667031
4445.383492
4426.894708
4428.509463
4428.006142
4428.198572
4427.705951
4427.876635
4427.430066
4427.236762
4426.930307
4426.608588
4426.482601
4425.572358
4426.248935
4424.543718
4423.256948
4409.637813
4422.043878
4420.328529
4460.431714
4441.688015
4442.561109
4435.144972
4454.657109
4422.312440
4448.366766
4429.447588
4442.009129
4441.083703
4442.205914
4456.860984
4438.419287
4427.035000
4428.894013
4428.094716
4428.319751
4428.125140
4428.028485
4427.714148
4427.761985
4427.194421
4427.316673
4426.132698
4427.117777
4424.399074
4424.352657
4427.327535
4433.455168
4405.106054
4416.385399
4422.702382
4419.148884
4422.835503
4427.138863
4451.819594
4451.526549
4441.429399
4442.533072
4447.150532
4465.561137
4442.517926
4447.943137
4435.293709
4427.386858
4428.938036
4428.395891
4428.564495
4428.315272
4428.298076
4428.247873
4427.959762
4427.831934
4427.265692
4427.579097
4425.547216
4426.793922
4426.542430
4424.027203
4427.948474
4423.518583
4451.954093
4447.464654
4435.382914
4417.771249
4454.741480
4416.740352
4445.795866
4437.402790
4469.221605
4452.468031
4448.410540
4440.554582
4419.580578
4456.684205
4427.913729
4429.193536
4428.747015
4428.965520
4428.621040
4428.867530
4428.376088
4428.313919
4428.082653
4427.725929
4426.747885
4427.314369
4426.337013
4424.890906
4427.485123
4422.008212
4414.966480
4430.704652
4420.758486
4441.700943
4442.314686
4436.057402
4462.432038
4409.432616
4461.150277
4461.815374
4466.212986
4437.090322
4443.422958
4485.429457
4458.364359
4428.438051
4429.532117
4428.956594
4429.258441
4428.897392
4429.124199
4428.559764
4429.108605
4427.897747
4428.754564
4427.551525
4427.244975
4426.397409
4426.535407
4427.832740
4440.233517
4419.344469
4428.769744
4424.560215
4415.374437
4432.208098
4417.832690
4450.319703
4438.605182
4421.075390
4449.885706
4465.328031
4454.551511
4462.142030
4488.763673
4459.884924