# vtk DataFile Version 2.0
mfree iwf
ASCII

DATASET UNSTRUCTURED_GRID
POINTS 11073 float
0.000000 0.000445 0.000000
0.000000 0.000450 0.000000
0.000000 0.000455 0.000000
-0.000000 0.000460 0.000000
-0.000000 0.000465 0.000000
-0.000000 0.000470 0.000000
-0.000000 0.000475 0.000000
-0.000000 0.000480 0.000000
0.000000 0.000485 0.000000
0.000000 0.000490 0.000000
-0.000000 0.000496 0.000000
0.000002 0.000500 0.000000
0.000902 0.000942 0.000000
0.000911 0.000942 0.000000
0.000958 0.000935 0.000000
0.000963 0.000933 0.000000
0.000962 0.000933 0.000000
0.000969 0.000932 0.000000
0.000976 0.000929 0.000000
0.000972 0.000931 0.000000
0.000986 0.000927 0.000000
0.001012 0.000919 0.000000
0.001018 0.000916 0.000000
0.001021 0.000913 0.000000
0.001025 0.000910 0.000000
0.001029 0.000907 0.000000
0.001033 0.000904 0.000000
0.001037 0.000901 0.000000
0.001040 0.000898 0.000000
0.001046 0.000894 0.000000
0.001050 0.000891 0.000000
0.001071 0.000881 0.000000
0.000005 0.000445 0.000000
0.000005 0.000450 0.000000
0.000005 0.000455 0.000000
0.000005 0.000460 0.000000
0.000005 0.000465 0.000000
0.000005 0.000470 0.000000
0.000005 0.000475 0.000000
0.000005 0.000480 0.000000
0.000005 0.000485 0.000000
0.000006 0.000490 0.000000
0.000003 0.000496 0.000000
0.000006 0.000499 0.000000
0.000952 0.000935 0.000000
0.000958 0.000927 0.000000
0.000992 0.000923 0.000000
0.000999 0.000922 0.000000
0.001004 0.000920 0.000000
0.001007 0.000918 0.000000
0.001009 0.000917 0.000000
0.001013 0.000913 0.000000
0.001016 0.000911 0.000000
0.001022 0.000907 0.000000
0.001027 0.000903 0.000000
0.001033 0.000899 0.000000
0.001036 0.000894 0.000000
0.001045 0.000890 0.000000
0.001047 0.000887 0.000000
0.001052 0.000884 0.000000
0.001063 0.000881 0.000000
0.001065 0.000880 0.000000
0.001060 0.000883 0.000000
0.001069 0.000879 0.000000
0.000010 0.000445 0.000000
0.000011 0.000450 0.000000
0.000010 0.000455 0.000000
0.000011 0.000459 0.000000
0.000010 0.000465 0.000000
0.000010 0.000469 0.000000
0.000010 0.000475 0.000000
0.000011 0.000479 0.000000
0.000009 0.000486 0.000000
0.000012 0.000489 0.000000
0.000009 0.000497 0.000000
0.000011 0.000498 0.000000
0.000952 0.000931 0.000000
0.000962 0.000925 0.000000
0.000978 0.000925 0.000000
0.000985 0.000924 0.000000
0.000990 0.000922 0.000000
0.000995 0.000921 0.000000
0.000986 0.000917 0.000000
0.000995 0.000915 0.000000
0.001000 0.000914 0.000000
0.001007 0.000911 0.000000
0.001017 0.000906 0.000000
0.001021 0.000904 0.000000
0.001021 0.000899 0.000000
0.001026 0.000895 0.000000
0.001031 0.000895 0.000000
0.001041 0.000890 0.000000
0.001055 0.000882 0.000000
0.001057 0.000881 0.000000
0.001063 0.000876 0.000000
0.001065 0.000870 0.000000
0.000015 0.000445 0.000000
0.000016 0.000450 0.000000
0.000014 0.000456 0.000000
0.000017 0.000460 0.000000
0.000014 0.000469 0.000000
0.000015 0.000465 0.000000
0.000014 0.000476 0.000000
0.000016 0.000480 0.000000
0.000014 0.000485 0.000000
0.000016 0.000489 0.000000
0.000014 0.000495 0.000000
0.000016 0.000497 0.000000
0.000025 0.000500 0.000000
0.000965 0.000926 0.000000
0.000980 0.000923 0.000000
0.000977 0.000919 0.000000
0.000991 0.000916 0.000000
0.000999 0.000919 0.000000
0.001003 0.000911 0.000000
0.001009 0.000907 0.000000
0.001005 0.000903 0.000000
0.001013 0.000904 0.000000
0.001023 0.000891 0.000000
0.001026 0.000900 0.000000
0.001032 0.000889 0.000000
0.001037 0.000890 0.000000
0.001038 0.000885 0.000000
0.001043 0.000884 0.000000
0.001048 0.000880 0.000000
0.001052 0.000878 0.000000
0.001056 0.000874 0.000000
0.001064 0.000868 0.000000
0.000019 0.000445 0.000000
0.000021 0.000450 0.000000
0.000018 0.000455 0.000000
0.000022 0.000458 0.000000
0.000019 0.000469 0.000000
0.000025 0.000467 0.000000
0.000018 0.000475 0.000000
0.000022 0.000478 0.000000
0.000019 0.000486 0.000000
0.000021 0.000490 0.000000
0.000020 0.000497 0.000000
0.000022 0.000499 0.000000
0.000039 0.000500 0.000000
0.000963 0.000914 0.000000
0.000969 0.000920 0.000000
0.000977 0.000914 0.000000
0.000983 0.000920 0.000000
0.000993 0.000910 0.000000
0.000994 0.000908 0.000000
0.001009 0.000902 0.000000
0.000998 0.000904 0.000000
0.001011 0.000896 0.000000
0.001013 0.000888 0.000000
0.001017 0.000886 0.000000
0.001023 0.000885 0.000000
0.001033 0.000882 0.000000
0.001039 0.000874 0.000000
0.001045 0.000876 0.000000
0.001049 0.000873 0.000000
0.001057 0.000869 0.000000
0.001060 0.000872 0.000000
0.001061 0.000864 0.000000
0.000024 0.000445 0.000000
0.000026 0.000450 0.000000
0.000024 0.000455 0.000000
0.000026 0.000461 0.000000
0.000021 0.000465 0.000000
0.000024 0.000472 0.000000
0.000023 0.000476 0.000000
0.000026 0.000481 0.000000
0.000023 0.000485 0.000000
0.000026 0.000488 0.000000
0.000026 0.000493 0.000000
0.000027 0.000500 0.000000
0.000932 0.000940 0.000000
0.000968 0.000923 0.000000
0.000973 0.000923 0.000000
0.000988 0.000912 0.000000
0.000983 0.000909 0.000000
0.001001 0.000908 0.000000
0.001001 0.000901 0.000000
0.000991 0.000904 0.000000
0.001000 0.000895 0.000000
0.001015 0.000899 0.000000
0.001017 0.000895 0.000000
0.001016 0.000894 0.000000
0.001028 0.000890 0.000000
0.001029 0.000885 0.000000
0.001042 0.000879 0.000000
0.001037 0.000879 0.000000
0.001052 0.000871 0.000000
0.001045 0.000870 0.000000
0.001054 0.000865 0.000000
0.001058 0.000860 0.000000
0.000030 0.000445 0.000000
0.000031 0.000450 0.000000
0.000029 0.000455 0.000000
0.000030 0.000460 0.000000
0.000031 0.000464 0.000000
0.000028 0.000469 0.000000
0.000032 0.000472 0.000000
0.000030 0.000477 0.000000
0.000030 0.000486 0.000000
0.000031 0.000492 0.000000
0.000033 0.000497 0.000000
0.000030 0.000499 0.000000
0.000048 0.000500 0.000000
0.000957 0.000920 0.000000
0.000973 0.000911 0.000000
0.000982 0.000913 0.000000
0.000978 0.000909 0.000000
0.000986 0.000907 0.000000
0.000993 0.000898 0.000000
0.001007 0.000891 0.000000
0.001005 0.000898 0.000000
0.001010 0.000891 0.000000
0.001020 0.000889 0.000000
0.001025 0.000877 0.000000
0.001026 0.000881 0.000000
0.001030 0.000878 0.000000
0.001035 0.000870 0.000000
0.001034 0.000875 0.000000
0.001043 0.000866 0.000000
0.001048 0.000866 0.000000
0.001053 0.000862 0.000000
0.001056 0.000856 0.000000
0.000035 0.000445 0.000000
0.000035 0.000450 0.000000
0.000034 0.000456 0.000000
0.000039 0.000454 0.000000
0.000034 0.000467 0.000000
0.000037 0.000472 0.000000
0.000032 0.000479 0.000000
0.000041 0.000479 0.000000
0.000035 0.000483 0.000000
0.000034 0.000488 0.000000
0.000037 0.000491 0.000000
0.000036 0.000498 0.000000
0.000889 0.000939 0.000000
0.000927 0.000940 0.000000
0.000967 0.000914 0.000000
0.000974 0.000906 0.000000
0.000987 0.000901 0.000000
0.000979 0.000897 0.000000
0.000996 0.000900 0.000000
0.000996 0.000894 0.000000
0.001003 0.000893 0.000000
0.001001 0.000885 0.000000
0.001007 0.000880 0.000000
0.001016 0.000877 0.000000
0.001021 0.000879 0.000000
0.001025 0.000871 0.000000
0.001040 0.000869 0.000000
0.001034 0.000858 0.000000
0.001044 0.000861 0.000000
0.001047 0.000861 0.000000
0.001050 0.000857 0.000000
0.001053 0.000852 0.000000
0.000040 0.000445 0.000000
0.000041 0.000450 0.000000
0.000037 0.000462 0.000000
0.000040 0.000458 0.000000
0.000042 0.000463 0.000000
0.000040 0.000468 0.000000
0.000041 0.000473 0.000000
0.000037 0.000477 0.000000
0.000041 0.000488 0.000000
0.000042 0.000491 0.000000
0.000041 0.000497 0.000000
0.000044 0.000498 0.000000
0.000751 0.000866 0.000000
0.000954 0.000927 0.000000
0.000959 0.000917 0.000000
0.000970 0.000901 0.000000
0.000983 0.000903 0.000000
0.000990 0.000894 0.000000
0.000985 0.000898 0.000000
0.000999 0.000889 0.000000
0.001008 0.000885 0.000000
0.001012 0.000882 0.000000
0.001004 0.000882 0.000000
0.001013 0.000874 0.000000
0.001021 0.000873 0.000000
0.001028 0.000867 0.000000
0.001030 0.000872 0.000000
0.001032 0.000867 0.000000
0.001037 0.000864 0.000000
0.001041 0.000857 0.000000
0.001047 0.000854 0.000000
0.001050 0.000848 0.000000
0.000044 0.000445 0.000000
0.000046 0.000450 0.000000
0.000044 0.000455 0.000000
0.000046 0.000461 0.000000
0.000044 0.000467 0.000000
0.000046 0.000474 0.000000
0.000046 0.000479 0.000000
0.000040 0.000483 0.000000
0.000052 0.000485 0.000000
0.000045 0.000483 0.000000
0.000048 0.000493 0.000000
0.000050 0.000498 0.000000
0.000756 0.000872 0.000000
0.000948 0.000935 0.000000
0.000972 0.000916 0.000000
0.000978 0.000903 0.000000
0.000976 0.000900 0.000000
0.000988 0.000891 0.000000
0.000992 0.000886 0.000000
0.000995 0.000887 0.000000
0.001000 0.000879 0.000000
0.001009 0.000876 0.000000
0.001017 0.000881 0.000000
0.001021 0.000867 0.000000
0.001014 0.000869 0.000000
0.001023 0.000863 0.000000
0.001031 0.000862 0.000000
0.001037 0.000860 0.000000
0.001035 0.000854 0.000000
0.001041 0.000853 0.000000
0.001045 0.000850 0.000000
0.001047 0.000844 0.000000
0.000049 0.000445 0.000000
0.000052 0.000450 0.000000
0.000049 0.000454 0.000000
0.000055 0.000457 0.000000
0.000048 0.000465 0.000000
0.000050 0.000472 0.000000
0.000052 0.000467 0.000000
0.000051 0.000477 0.000000
0.000047 0.000488 0.000000
0.000052 0.000491 0.000000
0.000057 0.000492 0.000000
0.000053 0.000498 0.000000
0.000834 0.000924 0.000000
0.000940 0.000931 0.000000
0.000953 0.000923 0.000000
0.000969 0.000905 0.000000
0.000977 0.000894 0.000000
0.000984 0.000892 0.000000
0.000979 0.000887 0.000000
0.000987 0.000887 0.000000
0.000996 0.000877 0.000000
0.000996 0.000882 0.000000
0.000999 0.000874 0.000000
0.001009 0.000870 0.000000
0.001015 0.000864 0.000000
0.001018 0.000870 0.000000
0.001024 0.000859 0.000000
0.001027 0.000854 0.000000
0.001028 0.000858 0.000000
0.001037 0.000849 0.000000
0.001041 0.000846 0.000000
0.001044 0.000840 0.000000
0.000054 0.000445 0.000000
0.000057 0.000450 0.000000
0.000051 0.000457 0.000000
0.000053 0.000463 0.000000
0.000059 0.000467 0.000000
0.000053 0.000473 0.000000
0.000058 0.000476 0.000000
0.000057 0.000481 0.000000
0.000052 0.000483 0.000000
0.000057 0.000486 0.000000
0.000056 0.000497 0.000000
0.000059 0.000496 0.000000
0.000856 0.000931 0.000000
0.000947 0.000936 0.000000
[...]
POINT_DATA 11073
SCALARS density float 1
LOOKUP_TABLE default
4428.275126
4433.898710
4425.773509
4427.325108
4433.560408
4425.038472
4429.897077
4431.080229
4428.705692
4415.192222
4430.900987
4406.028861
4425.250214
4422.315349
4418.157349
4439.083525
4440.537145
4434.302954
4449.349192
4447.676595
4424.820859
4440.631844
4407.861558
4436.228960
4430.039326
4415.703958
4449.621962
4429.411610
4413.461109
4446.718344
4421.836781
4404.326294
4429.527844
4426.771644
4424.666655
4428.526421
4434.297643
4426.708907
4431.285330
4425.911000
4424.541383
4438.608142
4449.477553
4408.778878
4415.589855
4409.646861
4417.686157
4408.485810
4426.608519
4414.087184
4431.617521
4436.669695
4443.978084
4429.828044
4405.777084
4386.439500
4443.609973
4402.497715
4433.545738
4461.411420
4423.608912
4431.251607
4407.833652
4402.252795
4423.053982
4430.361637
4446.211004
4423.552302
4426.430957
4416.273075
4450.294302
4398.344849
4453.835036
4398.671247
4445.082779
4398.447923
4458.526679
4460.928162
4437.124306
4407.000487
4430.868566
4407.166048
4445.167021
4424.546702
4406.386694
4427.948400
4429.129483
4429.397131
4395.690130
4438.508370
4441.544320
4405.156954
4421.868052
4424.517817
4454.166241
4419.042950
4423.168008
4437.179632
4433.060669
4417.404121
4425.097600
4443.366765
4448.961517
4391.185742
4471.235449
4376.755717
4501.171140
4407.878931
4434.950735
4390.822124
4427.167833
4437.700308
4466.506845
4463.464290
4428.754303
4407.542880
4417.850916
4411.202535
4420.387452
4471.290379
4409.352713
4457.510631
4430.349419
4461.836158
4437.351936
4360.438908
4505.632309
4446.602773
4437.273911
4433.519040
4436.958571
4442.044605
4413.451813
4461.489641
4432.988207
4444.017069
4466.619135
4374.606021
4469.486322
4434.390749
4418.292060
4443.018536
4466.931356
4417.054290
4465.217792
4456.064770
4441.154392
4445.733574
4464.993186
4378.715447
4418.594238
4416.893582
4416.264472
4422.415804
4411.492476
4456.042187
4451.387489
4369.640449
4390.829599
4422.828617
4434.747760
4438.989289
4426.632878
4406.846858
4431.249737
4417.341788
4465.596560
4359.937753
4434.719177
4471.677039
4414.130371
4424.707484
4431.751732
4425.837428
4384.302608
4388.142236
4466.199336
4409.781020
4392.064903
4378.132713
4461.760396
4454.134020
4453.650941
4438.205543
4442.564328
4445.465099
4394.371943
4430.531705
4424.310594
4428.460269
4501.909581
4410.752612
4424.786997
4428.102053
4426.058119
4438.531961
4440.104529
4427.216735
4391.954636
4453.460038
4443.149894
4407.991443
4458.457655
4419.452978
4422.832418
4442.588889
4453.588029
4405.473947
4395.016730
4468.313389
4439.603117
4429.998204
4449.403993
4468.286081
4440.319452
4451.950261
4439.848059
4403.006618
4407.486061
4455.616347
4430.775924
4381.332653
4412.458308
4440.701561
4429.873991
4412.168987
4434.158982
4435.337382
4436.853338
4436.634714
4454.821240
4430.800423
4409.327498
4432.818966
4412.070263
4445.567659
4419.108526
4426.096299
4396.288514
4432.168672
4457.010579
4450.312358
4432.993985
4411.782145
4434.162340
4427.206945
4412.850700
4413.704512
4400.094686
4446.940530
4444.809037
4463.465142
4450.625333
4452.035192
4410.734441
4416.668781
4434.907986
4438.730904
4405.997528
4449.698439
4433.855009
4432.464540
4438.647493
4415.092336
4451.124155
4431.318710
4431.230845
4423.632692
4424.811684
4461.255981
4410.405240
4423.002451
4413.018305
4431.624128
4433.048588
4432.024299
4426.808753
4427.706390
4455.182514
4436.060047
4438.518305
4419.265334
4409.961476
4455.274940
4402.371127
4396.895150
4428.618603
4432.746906
4433.774771
4411.445679
4411.857842
4423.294963
4402.071986
4424.949670
4444.862221
4424.930089
4451.491860
4418.183016
4464.249032
4433.719936
4434.206038
4436.262733
4405.497529
4428.751403
4424.893471
4422.888309
4424.932459
4454.731218
4438.476250
4439.402886
4441.817471
4421.341354
4418.901107
4448.975172
4411.980192
4437.442053
4429.216112
4424.055772
4441.150014
4425.090285
4424.331707
4436.561695
4428.585951
4407.256978
4442.906990
4458.962254
4419.910239
4377.239439
4384.897728
4423.752629
4519.561235
4407.255767
4435.772185
4422.798884
4393.206066
4444.893374
4444.804120
4397.066367
4433.439404
4450.574949
4415.398042
4425.352338
4434.079757
4440.200140
4402.145283
4456.244055
4436.241204
4451.985012
4411.845282
4432.788785
4420.067134
4430.657132
4434.209519
4429.922490
4456.877627
4416.431085
4445.558071
4459.451940
4426.253730
4459.704627
4474.382910
4359.386351
4409.440037
4396.173157
4432.562569
4432.373753
4425.402238
4411.028097
4448.266024
4442.317118
4410.955737
4427.070168
4421.346731
4432.438612
4437.240947
4425.428573
4446.133251
4441.212171
4444.798337
4406.900592
4426.967065
4445.118470
4423.495008
4426.182273
4419.608381
4428.363472
4425.561928
4387.056809
4444.780621
4431.362044
4406.261076
4435.606193
4438.078946
4433.326359
4436.636996
4428.456043
4410.744125
4433.902158
4416.038403
4384.769084
4381.826488
4427.435531
4438.752494
4449.415591
4412.008871
4450.112437
4427.674753
4431.271542
4403.073022
4418.193052
4418.567653
4426.161177
4437.322185
4428.596903
4435.790124
4433.244961
4442.369848
4404.660528
4436.928569
4413.471867
4449.372769
4469.934910
4420.529855
4376.286965
4449.515941
4375.461601
4476.970274
4424.279291
4415.481365
4435.850386
4411.435702
4394.043797
4443.401499
4403.901769
4438.359619
4406.408020
4441.980106
4417.513304
4466.662747
4445.322683
4416.453589
4449.139627
4416.673416
4428.524028
4430.635003
4446.632357
4412.494018
4432.177528
4429.374451
4430.362039
4408.598662
4455.659495
4447.923279
4422.592829
4430.590845
4455.000341
4425.806678
4403.741493
4437.088630
4440.152066
4429.101444
4436.111445
4438.902143
4459.865603
4455.076083
4446.682753
4443.067204
4443.945127
4400.221209
4412.868396
4406.843226
4426.840150
4445.541316
4441.516352
4408.693083
4430.346567
4427.242439
4402.222347
4439.546700
4431.072776
4434.518904
4418.351402
4475.233521
4384.781280
4413.239133
4414.403145
4445.315110
4446.708158
4444.506745
4369.640896
4425.643881
4444.103250
4432.220747
4417.472204
4431.891198
4440.734807
4442.555019
4430.441976
4390.490571
4431.672110
4407.185507
4431.604352
4428.287997
4429.126216
4401.339340
4422.434419
4429.651291
4406.619084
4448.864107
4420.991626
4435.918057
4420.941733
4413.879757
4428.986430
4468.075634
4434.334208
4404.421563
4439.140868
4381.207670
4445.214579
4425.969061
4461.642875
4423.795450
4428.278186
4431.793117
4428.121204
4433.526165
4434.452746
4479.933640
4438.213662
4421.381256
4448.268590
4409.403933
4447.887965
4446.134852
4418.883928
4435.915042
4430.041037
4439.392634
4439.220064
4429.549593
4439.290071
4426.016612
4440.656514
4441.001289
4433.158233
4430.843656
4437.481328
4428.024466
4451.079387
4442.917081
4446.269501
4458.282488
4378.484190
4439.837096
4443.435195
4432.995041
4433.399219
4441.179548
4439.112491
4462.441138
4407.198487
4478.751496
4466.854012
4429.587860
4435.906108
4435.219653
4429.667344
4423.040916
4424.647260
4422.494572
4420.574151
4450.364422
4423.742331
4433.264396
4422.859543
4423.771238
4433.192517
4409.139010
4437.778173
4422.064773
4437.882176
4416.983781
4431.487511
4461.555173
4414.569935
4399.276685
4437.433929
4415.175332
4422.176294
4427.168713
4438.965488
4423.960029
4432.114698
4428.062750
4429.520566
4444.916315
4446.549960
4423.252452
4424.362090
4421.420574
4431.916055
4425.417555
4429.400708
4421.771972
4411.445822
4430.838758
4430.514924
4443.610889
4420.573908
4420.686335
4448.244727
4407.868502
4426.725856
4428.797972
4406.308841
4450.325938
4422.451305
4434.382069
4430.558084
4423.423427
4437.600591
4440.278789
4461.092262
4441.299329
4445.646034
4421.536131
4442.431908
4481.381432
4416.735398
4438.851212
4447.316631
4381.627673
4435.462517
4444.045642
4438.041176
4430.349188
4454.213991
4431.123213
4437.146288
4422.395116
4447.671676
4450.461212
4397.458702
4421.165500
4415.650055
4453.186935
4408.549005
4464.354685
4473.600925
4395.862098
4511.911276
4428.212849
4420.673636
4429.957433
4472.643495
4439.230356
4433.957546
4358.292147
4440.116231
4401.269191
4447.920787
4464.809441
4453.921327
4450.703474
4436.212214
4391.821434
4459.964651
4424.535970
4417.646993
4408.807645
4432.879815
4420.175732
4414.356211
4416.146309
4426.048060
4422.410386
4440.607768
4429.842446
4430.517436
4446.076427
4373.225382
4436.395941
4432.688274
4425.008129
4421.718708
4429.877230
4442.754381
4452.561438
4403.264912
4444.418379
4433.169775
4407.650118
4358.876048
4461.880580
4387.847500
4419.612203
4427.240264
4460.102089
4424.936865
4449.524279
4447.328301
4428.579366
4442.350364
4437.714336
4416.521665
4452.733947
4424.360734
4413.677353
4445.370331
4416.616446
4406.789425
4435.949976
4383.551808
4375.901179
4469.685581
4425.646472
4438.684458
4399.083315
4438.136385
4441.872107
4438.495108
4435.658216
4458.493173
4450.025044
4390.456363
4364.733000
4452.187383
4392.575067
4392.924878
4422.245734
4446.193644
4410.272991
4402.642594
4412.016058
4421.284387
4435.343540
4415.262093
4464.319747
4430.700938
4446.254479
4429.762862
4403.519068
4437.071389
4465.899758
4457.711382
4440.772451
4429.984103
4420.995307
4440.699461
4421.526931
4399.935790
4362.069188
4430.936732
4408.404164
4438.903688
4386.452074
4429.155410
4436.898913
4463.919515
4451.168369
4466.150027
4412.788642
4438.115191
4445.458823
4421.399129
4452.309608
4421.868308
4425.658081
4429.998442
4429.932623
4430.063510
4429.961234
4429.607065
4429.442782
4429.215813
4429.600603
4430.205201
4431.140236
4431.479768
4431.436227
4430.879118
4430.272231
4427.102369
4429.363029
4428.885235
4429.400279
4430.281880
4431.373282
4432.584158
4433.420775
4433.498141
4432.077892
4430.640949
4429.623003
4429.794475
4430.828589
4431.033765
4428.166308
4429.431030
4430.031740
4430.094381
4429.779616
4428.613893
4427.844654
4426.708369
4427.165629
4428.608289
4430.834368
4431.750646
4431.183406
4430.546368
4428.681546
4428.572668
4429.155582
4428.715433
4428.824060
4429.849740
4431.034243
4432.405274
4433.731531
4433.497782
4431.985016
4429.550270
4428.296224
4428.089049
4428.725122
4429.860883
4428.988191
4429.506068
4430.019702
4430.215499
4429.413653
4428.492464
4427.214703
4425.935098
4426.278767
4427.581291
4430.225499
4430.779948
4431.310095
4428.438008
4428.998469
4428.898195
4429.267504
4428.564529
4428.597061
4429.696735
4430.581357
4432.262577
4433.173839
4433.392167
4431.172886
4429.229938
4427.198018
4427.581988
4427.704242
4428.670897
4429.113982
4429.326788
4430.256228
4429.943062
4429.348666
4428.250425
4426.868955
4425.650723
4425.646517
4427.333904
4429.321769
4430.722245
4429.479512
4427.608300
4427.307274
4428.821236
4429.077128
4428.627756
4428.334463
4429.570477
4430.310308
4431.990530
4432.867549
4433.136228
4430.806208
4429.042886
4426.675662
4427.952323
4427.040776
4427.600966
4428.624241
4429.464052
4429.984800
4429.730254
4429.487704
4427.681440
4427.162048
4424.872768
4425.971640
4426.453684
4429.694542
4430.350817
4430.882701
4429.010554
4430.168597
4428.732181
4429.107283
4428.298033
4428.479397
4429.065091
4430.502802
4431.264749
4433.124367
4432.454482
4431.029320
4428.612692
4426.773436
4427.992330
4428.158837
4427.985465
4428.715155
4429.550769
4429.730711
4430.042751
4428.746980
4428.165313
4426.242029
4425.390871
4425.157384
4426.902792
4428.620717
4431.011681
4428.680413
4428.747689
4426.919888
4428.512898
4429.038617
4428.099269
4428.133184
4429.057095
4430.002625
4431.239339
4432.810560
4432.533060
4430.809546
4428.519127
4426.704518
4427.133887
4427.683581
4427.523101
4428.565295
4429.207615
4429.939785
4429.685625
4428.842068
4427.732633
4426.614166
4424.884756
4425.618839
4426.241332
4429.110644
4430.456646
4431.517219
4428.708782
4431.002640
4431.593144
4448.257661
4440.678942
4441.946255
4426.692603
4451.187569
4429.765574
4402.961356
4407.283253
4443.234105
4455.992894
4408.762086
4393.609313
4458.857429
4432.197458
4426.816749
4428.364487
4428.728986
4428.177842
4427.480534
4429.279878
4429.469177
4431.296341
4432.496845
4432.562753
4430.310539
4428.932486
4426.239135
4428.061525
4429.243369
4431.985319
4431.196141
4442.682448
4421.692806
4408.478434
4423.292730
4438.026329
4433.855739
4405.674809
4394.778475
4419.352947
4425.211228
4435.390226
4438.050048
4405.925733
4420.876517
4407.445701
4428.241574
4429.068812
4429.913318
4429.482189
4428.851794
4427.364859
4426.894608
4424.557715
4425.722659
4425.828827
4428.649903
4430.250591
4430.491388
4428.501148
4429.473867
4449.166818
4442.187962
4421.233058
4415.630425
4412.277270
4448.960207
4421.892038
4424.298722
4394.912313
4433.996986
4439.498598
4422.593484
4441.480810
4428.368679
4441.053042
4431.729266
4428.244867
4428.730084
4427.774440
4427.541031
4428.649859
4429.761209
4430.469774
4432.854216
4431.651865
4430.639726
4427.855876
4425.868694
4426.685119
4426.658214
4430.077208
4432.246614
4400.952578
4427.396393
4382.948191
4398.426011
4448.836598
4429.873594
4448.517206
4442.265927
4448.510716
4434.939817
4427.651038
4377.945989
4385.382667
4447.224485
4452.296877
4428.034297
4429.158010
4429.705136
4429.411608
4428.798521
4427.258287
4426.825947
4424.567382
4425.505755
4425.363513
4428.188282
4429.584128
4428.927883
4426.328688
4424.263936
4443.784874
4457.186469
4453.980473
4460.372350
4440.649020
4433.578558
4440.609108
4431.368183
4399.841219
4431.675685
4393.509373
4436.150994
4419.793997
4412.601756
4427.906837
4421.917411
4427.841066
4428.715512
4427.465436
4427.531279
4428.323098
4429.823155
4430.144441
4432.741955
4431.493965
4430.461408
4427.408066
4425.430703
4426.237184
4426.186464
4425.452539
4411.907282
4410.373508
4399.537465
4401.837840
4475.214746
4390.328855
4433.856478
4440.015310
4435.559131
4398.238831
4398.410796
4422.225862
4422.250099
4408.154791
4441.546542
4418.466056
4428.197773
4429.218900
4429.614226
4429.675241
4428.484673
4427.638203
4426.374653
4425.059525
4425.109369
4425.450715
4427.517684
4429.833128
4427.557658
4426.982923
4426.008479
4448.653187
4433.854387
4437.882449
4399.191096
4358.193755
4437.604215
4430.792924
4432.928708
4461.905881
4436.972382
4418.393934
4467.511353
4450.168363
4428.484516
4479.461232
4404.611068
4427.802529
4428.565539
4427.453011
4427.121509
4428.371824
4429.365959
4430.115405
4432.523904
4431.647896
4430.294425
4427.611658
4425.165331
4426.724251
4427.459161
4425.606924
4439.636493
4442.663787
4435.131726
4453.586133
4393.499144
4481.815578
4417.275771
4426.132750
4425.551241
4393.618440
4448.665803
4393.112303
4467.289291
4375.124878
4427.025374
4428.390106
4428.072674
4428.918622
4429.891422
4429.469417
4428.672934
4427.211361
4426.925960
4424.714001
4425.881413
4424.841003
4427.956637
4430.107287
4428.784649
4427.803093
4429.546754
4416.197718
4434.130809
4380.255798
4396.466145
4441.623136
4437.020683
4423.090542
4424.741700
4360.968172
4438.993226
4401.528367
4405.930499
4466.184119
4452.350615
4411.982805
4390.675147
4427.849130
4428.278095
4427.676366
4426.416502
4428.592203
4428.808303
4430.136604
4432.323477
4431.580914
4430.349215
4427.506237
4425.019256
4427.985098
4426.675426
4428.650986
4439.204138
4445.774051
4422.685804
4463.554853
4372.510965
4420.136569
4432.082919
4439.843879
4428.410540
4434.430467
4436.009650
4449.166620
4394.890849
4433.616379
4375.487986
4446.131392
4427.867543
4428.869594
4429.821491
4429.557748
4428.572539
4427.112289
4427.126896
4424.751204
4426.083093
4424.308580
4428.016799
4429.527759
4428.592640
4427.410202
4428.483041
4428.503939
4387.598828
4404.688031
4455.816402
4462.361453
4428.811676
4458.925790
4458.065208
4389.960749
4461.494922
4436.228534
4429.795728
4456.309311
4379.495640
4434.616143
4394.148257
4427.761950
4428.424705
4427.274230
4426.502220
4427.926590
4429.043312
4429.620624
4432.153210
4431.632466
4430.161335
4426.987909
4424.957368
4426.089421
4426.264004
4424.223226
4417.840823
4435.591483
4411.550502
4393.665474
4418.732543
4414.280835
4435.390553
4438.938660
4460.580977
4443.993171
4467.864319
4393.890068
4424.661538
4420.083648
4430.961678
4447.901683
4427.661296
4429.160833
4429.566859
4429.589538
4428.759108
4427.298245
4426.864677
4425.680085
4425.313749
4424.832634
4426.931863
4429.395193
4426.982732
4426.292359
4425.013369
4424.156095
4437.555522
4422.727321
4417.608933
4433.574825
4432.155569
4442.613880
4433.198129
4425.978556
4408.280134
4425.075061
4456.404598
4412.676570
4415.400491
4509.517386
4443.405731
4427.503976
4429.013023
4426.338163
4427.381467
4426.760926
4430.162147
4428.386856
4433.005645
4430.945342
4430.510467
4426.269580
4425.028425
4425.255388
4425.774021
4424.776077
4426.453942
4440.011783
4387.535102
4448.117850
4436.645651
4422.480174
4427.479014
4423.466321
4406.050369
4441.691978
4447.465248
4441.026793
4376.265539
4406.960560
4404.710046
4451.688713
4427.437933
4429.827057
4428.906809
4430.679093
4427.894693
4428.301830
4425.664271
4426.562446
4424.666151
4425.269861
4426.174609
4429.551947
4426.587856
4427.471131
4424.119914
4421.957225
4429.185973
4418.709663
4426.258027
4440.246488
4434.021065
4416.290608
4434.475294
4441.421294
4440.047670
4435.719718
4397.968953
4404.377052
4445.098523
4404.689917
4398.114096
4427.596817
4428.742558
4426.684204
4426.491428
4427.459521
4428.914161
4428.841310
4433.099458
4430.827588
4431.021725
4426.173941
4425.668074
4424.461127
4426.602535
4424.254428
4432.898168
4409.036371
4425.942388
4411.520090
4386.985102
4436.015791
4423.943769
4425.779020
4411.397463
4466.628662
4446.400673
4433.392593
4458.039981
4395.906749
4427.778222
4430.960189
4427.911557
4429.144800
4429.905717
4430.290734
4428.080731
4428.292750
4426.519075
4425.887588
4426.626509
4424.459713
4426.628379
4429.221676
4428.333982
4426.617380
4426.073117
4417.800672
4430.787054
4440.497833
4453.456911
4399.373737
4430.801013
4439.974021
4422.059929
4461.390545
4418.498970
4455.439979
4413.195996
4428.224910
4428.169929
4421.805212
4415.254007
4427.947264
4428.487939
4426.919092
4425.758789
4427.643344
4427.671818
4429.994130
4432.062934
4431.236578
4430.487465
4427.061546
4423.675751
4425.738322
4424.986248
4425.820554
4442.749876
4447.591112
4440.829465
4452.235139
4378.975342
4411.764075
4434.019651
4414.189172
4473.531402
4458.444760
4443.056600
4398.369388
4438.604467
4439.653504
4421.177066
4430.432729
4427.909348
4428.429315
4430.566393
4428.925130
4429.343871
4426.812340
4427.948218
4424.561922
4427.598499
4423.138412
4426.514063
4429.512281
4426.991699
4425.424339
4427.791939
4440.902364
4426.188076
4416.397956
4462.030409
4382.378262
4437.456040
4428.996223
4431.096051
4426.800313
4461.830296
4461.303777
4404.477906
4418.879845
4430.412502
4374.258466
4432.075305
4427.675971
4428.716353
4426.706544
4426.143303
4426.502007
4428.813580
4429.177715
4432.648706
4431.682864
4431.495823
4426.733739
4424.180029
4423.995494
4423.907050
4423.838339
4426.505452
4427.158083
4419.529211
4379.637400
4428.672121
4442.847477
4449.445683
4434.354147
4442.485372
4426.956933
4401.857820
4415.684851
4395.809103
4437.395802
4407.751303
4443.700509
4427.487378
4429.775546
4428.636240
4431.173848
4428.472984
4428.745115
4426.980631
4427.505269
4425.856937
4424.383739
4426.528910
4428.615536
4426.787500
4426.078121
4423.801632
4431.245781
4435.624105
4423.785791
4427.423615
4456.969608
4414.288757
4415.112185
4476.009725
4386.463579
4461.517202
4411.208091
4389.683517
4470.572600
4423.808089
4564.217749
4412.054859
4427.381613
4429.009652
4426.852086
4426.183228
4426.473639
4429.316759
4427.678149
4434.265642
4430.124803
4431.150719
4425.727457
4425.802550
4422.581102
4425.481507
4421.076529
4446.346350
4426.454309
4425.445296
4417.189034
4472.963832
4458.978992
4439.089644
4433.534720
4447.657497
4434.527559
4439.517024
4450.869558
4444.492110
4439.627659
4278.502404
4429.644287
4427.902804
4430.160570
4428.761173
4432.145076
4427.379024
4429.570070
4425.160263
4427.841310
4423.609518
4425.847758
4424.291886
4428.489921
4425.472000
4427.181769
4420.637035
4426.186109
4421.627522
4417.685758
4429.567344
4449.062468
4415.334550
4434.612033
4441.540830
4441.388877
4407.588013
4414.328924
4443.097028
4454.575240
4440.399280
4376.870179
4395.659273