# vtk DataFile Version 2.0
mfree iwf
ASCII

DATASET UNSTRUCTURED_GRID
POINTS 11907 float
-0.000000 0.000445 0.000000
-0.000000 0.000450 0.000000
-0.000000 0.000455 0.000000
-0.000000 0.000460 0.000000
-0.000000 0.000465 0.000000
-0.000000 0.000470 0.000000
-0.000000 0.000475 0.000000
-0.000000 0.000480 0.000000
-0.000000 0.000485 0.000000
0.000000 0.000490 0.000000
-0.000001 0.000496 0.000000
0.000002 0.000500 0.000000
0.001269 0.001047 0.000000
0.001277 0.001044 0.000000
0.001320 0.001022 0.000000
0.001324 0.001019 0.000000
0.001323 0.001019 0.000000
0.001330 0.001015 0.000000
0.001336 0.001011 0.000000
0.001332 0.001014 0.000000
0.001344 0.001006 0.000000
0.001366 0.000991 0.000000
0.001371 0.000985 0.000000
0.001373 0.000982 0.000000
0.001376 0.000978 0.000000
0.001379 0.000974 0.000000
0.001382 0.000969 0.000000
0.001384 0.000965 0.000000
0.001386 0.000962 0.000000
0.001390 0.000956 0.000000
0.001394 0.000952 0.000000
0.001411 0.000938 0.000000
0.000005 0.000445 0.000000
0.000005 0.000450 0.000000
0.000005 0.000455 0.000000
0.000005 0.000460 0.000000
0.000005 0.000465 0.000000
0.000005 0.000470 0.000000
0.000005 0.000475 0.000000
0.000005 0.000480 0.000000
0.000005 0.000485 0.000000
0.000006 0.000489 0.000000
0.000003 0.000496 0.000000
0.000006 0.000498 0.000000
0.001315 0.001024 0.000000
0.001317 0.001014 0.000000
0.001349 0.001000 0.000000
0.001355 0.000997 0.000000
0.001359 0.000993 0.000000
0.001361 0.000991 0.000000
0.001363 0.000989 0.000000
0.001365 0.000985 0.000000
0.001368 0.000981 0.000000
0.001371 0.000976 0.000000
0.001376 0.000970 0.000000
0.001379 0.000965 0.000000
0.001382 0.000959 0.000000
0.001388 0.000952 0.000000
0.001390 0.000948 0.000000
0.001394 0.000944 0.000000
0.001403 0.000939 0.000000
0.001405 0.000938 0.000000
0.001401 0.000942 0.000000
0.001409 0.000936 0.000000
0.000010 0.000445 0.000000
0.000010 0.000450 0.000000
0.000010 0.000455 0.000000
0.000010 0.000460 0.000000
0.000010 0.000465 0.000000
0.000010 0.000469 0.000000
0.000010 0.000475 0.000000
0.000010 0.000479 0.000000
0.000009 0.000486 0.000000
0.000012 0.000489 0.000000
0.000008 0.000497 0.000000
0.000011 0.000498 0.000000
0.001313 0.001020 0.000000
0.001320 0.001012 0.000000
0.001335 0.001006 0.000000
0.001342 0.001003 0.000000
0.001346 0.001000 0.000000
0.001351 0.000998 0.000000
0.001341 0.000997 0.000000
0.001348 0.000992 0.000000
0.001353 0.000989 0.000000
0.001358 0.000985 0.000000
0.001365 0.000978 0.000000
0.001370 0.000973 0.000000
0.001369 0.000966 0.000000
0.001372 0.000963 0.000000
0.001377 0.000962 0.000000
0.001385 0.000954 0.000000
0.001395 0.000942 0.000000
0.001397 0.000940 0.000000
0.001401 0.000934 0.000000
0.001401 0.000928 0.000000
0.000015 0.000445 0.000000
0.000016 0.000450 0.000000
0.000014 0.000456 0.000000
0.000017 0.000460 0.000000
0.000014 0.000469 0.000000
0.000016 0.000465 0.000000
0.000014 0.000476 0.000000
0.000017 0.000480 0.000000
0.000014 0.000484 0.000000
0.000016 0.000489 0.000000
0.000014 0.000495 0.000000
0.000016 0.000497 0.000000
0.000025 0.000500 0.000000
0.001324 0.001012 0.000000
0.001338 0.001004 0.000000
0.001331 0.001002 0.000000
0.001344 0.000994 0.000000
0.001354 0.000994 0.000000
0.001354 0.000985 0.000000
0.001361 0.000980 0.000000
0.001356 0.000979 0.000000
0.001362 0.000975 0.000000
0.001368 0.000961 0.000000
0.001373 0.000969 0.000000
0.001376 0.000954 0.000000
0.001381 0.000955 0.000000
0.001380 0.000950 0.000000
0.001384 0.000948 0.000000
0.001388 0.000942 0.000000
0.001391 0.000939 0.000000
0.001394 0.000935 0.000000
0.001400 0.000926 0.000000
0.000019 0.000445 0.000000
0.000021 0.000450 0.000000
0.000018 0.000455 0.000000
0.000022 0.000459 0.000000
0.000019 0.000469 0.000000
0.000024 0.000467 0.000000
0.000018 0.000475 0.000000
0.000022 0.000479 0.000000
0.000019 0.000486 0.000000
0.000021 0.000490 0.000000
0.000020 0.000497 0.000000
0.000022 0.000499 0.000000
0.000039 0.000500 0.000000
0.001317 0.001001 0.000000
0.001326 0.001005 0.000000
0.001332 0.000997 0.000000
0.001338 0.001000 0.000000
0.001347 0.000987 0.000000
0.001344 0.000983 0.000000
0.001356 0.000975 0.000000
0.001348 0.000981 0.000000
0.001359 0.000970 0.000000
0.001357 0.000962 0.000000
0.001361 0.000956 0.000000
0.001367 0.000955 0.000000
0.001375 0.000949 0.000000
0.001378 0.000940 0.000000
0.001384 0.000938 0.000000
0.001387 0.000936 0.000000
0.001394 0.000930 0.000000
0.001397 0.000930 0.000000
0.001395 0.000923 0.000000
0.000024 0.000445 0.000000
0.000026 0.000450 0.000000
0.000024 0.000455 0.000000
0.000026 0.000461 0.000000
0.000021 0.000464 0.000000
0.000026 0.000472 0.000000
0.000022 0.000476 0.000000
0.000027 0.000481 0.000000
0.000023 0.000485 0.000000
0.000026 0.000488 0.000000
0.000026 0.000492 0.000000
0.000027 0.000500 0.000000
0.001297 0.001035 0.000000
0.001326 0.001008 0.000000
0.001330 0.001007 0.000000
0.001342 0.000989 0.000000
0.001338 0.000992 0.000000
0.001352 0.000982 0.000000
0.001350 0.000975 0.000000
0.001340 0.000985 0.000000
0.001346 0.000973 0.000000
0.001365 0.000971 0.000000
0.001362 0.000964 0.000000
0.001363 0.000967 0.000000
0.001372 0.000959 0.000000
0.001372 0.000953 0.000000
0.001382 0.000943 0.000000
0.001377 0.000945 0.000000
0.001389 0.000931 0.000000
0.001381 0.000934 0.000000
0.001390 0.000926 0.000000
0.001391 0.000920 0.000000
0.000030 0.000445 0.000000
0.000031 0.000450 0.000000
0.000029 0.000455 0.000000
0.000031 0.000459 0.000000
0.000031 0.000464 0.000000
0.000028 0.000468 0.000000
0.000031 0.000472 0.000000
0.000030 0.000477 0.000000
0.000030 0.000486 0.000000
0.000031 0.000492 0.000000
0.000033 0.000497 0.000000
0.000030 0.000499 0.000000
0.000048 0.000500 0.000000
0.001315 0.001009 0.000000
0.001325 0.000995 0.000000
0.001333 0.000992 0.000000
0.001331 0.000992 0.000000
0.001336 0.000987 0.000000
0.001341 0.000975 0.000000
0.001353 0.000963 0.000000
0.001354 0.000972 0.000000
0.001355 0.000966 0.000000
0.001363 0.000959 0.000000
0.001364 0.000945 0.000000
0.001368 0.000950 0.000000
0.001370 0.000946 0.000000
0.001372 0.000936 0.000000
0.001374 0.000942 0.000000
0.001379 0.000929 0.000000
0.001384 0.000929 0.000000
0.001387 0.000924 0.000000
0.001388 0.000917 0.000000
0.000035 0.000445 0.000000
0.000035 0.000450 0.000000
0.000034 0.000457 0.000000
0.000038 0.000454 0.000000
0.000035 0.000467 0.000000
0.000036 0.000472 0.000000
0.000032 0.000479 0.000000
0.000041 0.000479 0.000000
0.000034 0.000483 0.000000
0.000035 0.000488 0.000000
0.000037 0.000491 0.000000
0.000036 0.000498 0.000000
0.001256 0.001048 0.000000
0.001292 0.001037 0.000000
0.001322 0.001000 0.000000
0.001326 0.000989 0.000000
0.001339 0.000980 0.000000
0.001328 0.000980 0.000000
0.001345 0.000978 0.000000
0.001343 0.000970 0.000000
0.001350 0.000968 0.000000
0.001340 0.000962 0.000000
0.001347 0.000953 0.000000
0.001359 0.000949 0.000000
0.001363 0.000951 0.000000
0.001365 0.000943 0.000000
0.001377 0.000935 0.000000
0.001366 0.000927 0.000000
0.001378 0.000922 0.000000
0.001381 0.000926 0.000000
0.001384 0.000920 0.000000
0.001383 0.000914 0.000000
0.000040 0.000445 0.000000
0.000041 0.000450 0.000000
0.000036 0.000461 0.000000
0.000040 0.000458 0.000000
0.000041 0.000463 0.000000
0.000039 0.000468 0.000000
0.000041 0.000473 0.000000
0.000037 0.000477 0.000000
0.000041 0.000488 0.000000
0.000042 0.000491 0.000000
0.000041 0.000497 0.000000
0.000044 0.000498 0.000000
0.001102 0.001024 0.000000
0.001313 0.001016 0.000000
0.001314 0.001005 0.000000
0.001320 0.000987 0.000000
0.001333 0.000983 0.000000
0.001335 0.000976 0.000000
0.001334 0.000979 0.000000
0.001346 0.000965 0.000000
0.001350 0.000957 0.000000
0.001356 0.000957 0.000000
0.001348 0.000962 0.000000
0.001348 0.000943 0.000000
0.001358 0.000940 0.000000
0.001363 0.000934 0.000000
0.001369 0.000940 0.000000
0.001367 0.000935 0.000000
0.001373 0.000930 0.000000
0.001374 0.000925 0.000000
0.001379 0.000918 0.000000
0.001380 0.000911 0.000000
0.000044 0.000445 0.000000
0.000046 0.000450 0.000000
0.000044 0.000455 0.000000
0.000046 0.000461 0.000000
0.000044 0.000467 0.000000
0.000046 0.000473 0.000000
0.000046 0.000478 0.000000
0.000039 0.000483 0.000000
0.000051 0.000485 0.000000
0.000045 0.000483 0.000000
0.000048 0.000493 0.000000
0.000050 0.000498 0.000000
0.001108 0.001027 0.000000
0.001311 0.001025 0.000000
0.001327 0.000999 0.000000
0.001329 0.000986 0.000000
0.001325 0.000983 0.000000
0.001337 0.000970 0.000000
0.001334 0.000967 0.000000
0.001341 0.000966 0.000000
0.001340 0.000957 0.000000
0.001352 0.000953 0.000000
0.001356 0.000952 0.000000
0.001362 0.000939 0.000000
0.001353 0.000944 0.000000
0.001358 0.000934 0.000000
0.001369 0.000931 0.000000
0.001369 0.000924 0.000000
0.001369 0.000920 0.000000
0.001374 0.000919 0.000000
0.001375 0.000915 0.000000
0.001375 0.000909 0.000000
0.000049 0.000445 0.000000
0.000053 0.000450 0.000000
0.000049 0.000454 0.000000
0.000052 0.000455 0.000000
0.000048 0.000465 0.000000
0.000050 0.000472 0.000000
0.000052 0.000467 0.000000
0.000051 0.000478 0.000000
0.000047 0.000488 0.000000
0.000052 0.000491 0.000000
0.000057 0.000492 0.000000
0.000053 0.000498 0.000000
0.001199 0.001051 0.000000
0.001302 0.001024 0.000000
0.001311 0.001012 0.000000
0.001321 0.000990 0.000000
0.001325 0.000976 0.000000
0.001332 0.000973 0.000000
0.001327 0.000972 0.000000
0.001331 0.000966 0.000000
0.001336 0.000955 0.000000
0.001344 0.000958 0.000000
0.001341 0.000953 0.000000
0.001350 0.000948 0.000000
0.001348 0.000937 0.000000
0.001356 0.000945 0.000000
0.001359 0.000929 0.000000
0.001359 0.000922 0.000000
0.001362 0.000927 0.000000
0.001366 0.000916 0.000000
0.001371 0.000912 0.000000
0.001371 0.000906 0.000000
0.000053 0.000445 0.000000
0.000058 0.000451 0.000000
0.000055 0.000461 0.000000
0.000050 0.000460 0.000000
0.000060 0.000466 0.000000
0.000053 0.000473 0.000000
0.000057 0.000476 0.000000
0.000057 0.000480 0.000000
0.000052 0.000483 0.000000
0.000057 0.000486 0.000000
0.000056 0.000497 0.000000
0.000059 0.000496 0.000000
0.001222 0.001051 0.000000
0.001310 0.001027 0.000000
[...]
POINT_DATA 11907
SCALARS density float 1
LOOKUP_TABLE default
4427.915380
4430.554566
4424.979111
4428.469023
4431.885567
4426.443922
4435.293436
4427.581486
4430.416833
4419.605497
4429.589032
4406.310561
4427.597044
4417.993026
4414.238862
4440.799905
4438.593462
4439.374755
4454.953126
4456.100278
4428.092289
4420.180777
4397.480988
4445.381906
4424.571050
4427.416185
4451.071804
4420.351071
4432.043296
4447.439604
4427.908852
4408.093392
4430.988609
4432.122785
4430.759831
4427.172756
4431.852752
4421.960451
4427.969793
4423.012534
4425.104947
4432.933045
4449.153823
4409.088870
4410.707794
4421.966334
4420.024346
4412.859863
4419.671991
4431.106000
4444.934303
4463.306636
4435.110172
4431.945492
4428.760504
4394.998193
4446.679083
4398.558714
4435.637230
4461.265702
4426.421494
4441.047287
4404.556841
4406.762665
4421.268689
4425.498344
4433.438466
4420.618503
4431.836073
4421.848838
4454.771746
4396.365257
4464.220127
4382.255822
4447.157896
4401.985543
4470.071459
4446.574409
4429.201147
4395.776823
4415.009869
4413.160389
4476.250674
4453.505080
4438.864517
4385.927041
4425.041200
4414.016286
4400.443817
4469.330648
4406.062351
4389.652157
4425.108833
4429.097233
4438.583039
4406.467755
4424.820844
4439.773254
4445.861521
4417.290702
4419.133090
4450.806249
4451.948514
4389.812796
4468.486138
4389.995266
4508.903125
4406.761636
4434.476204
4393.375044
4411.239947
4485.657307
4445.347348
4433.504406
4448.881488
4380.065426
4431.089838
4415.463179
4405.547652
4435.652980
4428.312095
4454.808356
4423.292981
4487.730955
4436.086781
4360.871537
4488.899124
4444.381829
4435.974008
4422.442033
4439.965028
4432.424486
4401.371357
4437.351468
4436.658194
4434.463800
4475.815576
4368.434132
4461.172587
4432.734054
4417.787991
4440.839662
4482.535495
4368.910970
4465.877845
4392.107975
4454.576952
4442.339696
4436.925363
4381.328126
4423.563780
4435.078436
4425.132516
4418.865931
4421.340537
4478.470696
4444.429523
4425.211079
4391.752619
4417.145676
4434.602612
4432.055661
4441.079643
4415.421880
4438.341291
4422.810021
4452.976934
4378.525450
4424.655283
4465.850633
4429.313899
4423.556352
4435.133498
4417.109308
4358.723568
4443.215599
4393.810963
4445.868363
4384.192665
4457.593692
4481.876562
4470.208889
4437.115628
4449.922637
4446.920392
4446.177118
4367.955232
4440.065165
4406.410942
4398.199732
4447.986017
4421.197586
4423.172867
4431.599129
4413.376143
4439.430826
4434.275970
4444.541316
4400.481423
4446.724872
4438.417232
4403.851592
4447.600017
4418.722080
4418.459198
4444.167022
4469.604224
4474.747014
4429.435951
4422.389944
4424.656110
4437.618551
4464.027198
4447.222680
4438.313202
4438.679421
4442.112151
4395.478683
4432.112344
4453.559967
4455.350981
4431.987678
4435.867793
4444.379441
4423.954225
4435.105855
4440.220352
4437.186629
4430.548778
4435.020614
4443.817551
4430.846479
4413.826240
4430.425666
4429.890765
4443.472511
4414.782957
4427.802186
4376.744620
4377.788825
4415.497469
4441.687463
4431.322588
4441.179300
4400.078590
4463.412716
4427.082820
4420.757391
4403.186596
4454.046182
4422.740578
4420.803033
4463.393948
4405.602531
4402.756393
4410.057924
4431.372971
4417.812179
4416.355806
4431.214691
4432.922919
4434.665386
4438.813522
4424.156900
4438.138022
4429.840918
4433.769879
4420.304397
4435.194402
4456.138079
4402.261004
4447.759402
4411.046154
4471.877940
4448.752716
4432.186836
4432.877699
4409.010020
4442.958056
4411.839508
4394.040163
4425.071719
4408.610515
4431.939556
4441.266942
4382.634474
4451.695463
4431.082791
4433.612831
4413.986228
4423.066051
4445.141416
4412.169107
4430.109814
4435.452664
4425.216301
4453.948612
4432.736341
4472.001302
4432.792550
4433.616803
4437.517602
4388.294417
4427.696441
4454.333373
4395.973130
4465.921128
4442.536442
4440.062554
4438.255044
4438.932596
4439.913058
4469.267200
4454.296535
4414.683026
4463.836933
4421.170326
4414.742848
4416.524278
4451.987933
4424.256484
4415.115005
4460.197012
4397.867778
4442.307028
4457.435397
4389.124802
4379.554321
4393.766292
4426.628199
4522.952559
4411.348351
4441.326569
4429.283402
4396.937286
4460.715762
4419.794890
4398.027531
4425.817784
4438.363384
4420.983729
4400.220572
4423.679827
4405.286796
4393.920489
4421.793988
4422.278561
4448.629165
4444.082724
4442.312180
4402.960588
4422.724508
4441.285910
4426.132288
4493.154412
4407.081826
4409.445809
4456.796232
4416.863748
4433.438991
4462.036822
4348.556763
4414.742746
4403.993532
4435.524814
4426.411426
4436.928861
4419.428897
4372.332814
4440.851119
4382.748441
4410.392625
4452.832668
4409.386874
4431.616392
4435.893511
4444.526093
4430.545507
4450.373085
4394.880396
4427.389471
4455.306459
4430.042831
4426.722704
4420.744571
4405.297804
4462.462754
4412.185402
4367.980949
4452.914501
4427.876855
4383.399608
4434.582306
4421.315495
4443.602664
4434.684354
4424.993770
4428.242647
4423.185395
4372.775984
4429.172033
4432.827940
4430.830384
4465.969913
4436.219816
4449.647734
4460.839125
4417.589835
4432.997901
4446.816145
4440.723001
4414.025413
4423.389504
4398.931446
4438.983590
4434.969082
4445.730522
4437.918017
4443.619115
4442.424810
4446.362225
4422.091509
4399.369991
4466.282426
4476.770146
4416.998207
4417.022842
4439.513934
4413.847219
4430.639880
4398.173148
4370.503380
4463.416073
4398.164445
4461.640189
4384.208862
4421.929045
4456.748328
4460.669618
4422.289471
4434.810974
4443.400193
4420.971846
4411.220636
4449.998925
4457.961533
4419.636187
4417.824337
4417.306233
4437.466518
4436.266641
4463.883613
4394.246110
4392.384463
4402.303664
4442.503391
4381.704417
4440.729727
4437.875435
4453.036476
4429.000543
4439.746576
4423.638420
4462.799912
4428.308162
4426.184980
4449.841067
4456.967598
4390.201582
4406.753612
4425.351496
4419.171870
4451.395376
4421.911356
4437.421868
4422.665093
4419.722054
4407.228778
4435.368212
4436.975499
4430.736613
4439.717657
4405.728171
4452.751088
4408.145943
4453.896119
4449.462452
4444.685039
4446.493050
4384.977548
4398.466566
4450.725877
4426.681744
4432.058544
4433.034735
4445.726175
4441.108643
4424.828073
4389.855607
4431.786388
4373.349664
4395.754291
4413.137706
4416.864297
4419.552859
4434.224475
4418.975967
4439.154376
4454.758028
4400.243908
4444.127822
4419.773960
4432.415404
4435.595663
4440.875313
4411.164133
4461.248701
4378.691752
4439.460718
4448.194138
4426.937632
4385.610053
4419.421624
4425.868456
4421.055538
4421.035527
4432.440054
4439.152287
4469.206674
4405.464384
4393.513740
4442.388016
4431.598189
4459.191816
4398.269459
4463.966918
4408.933317
4437.264416
4448.056051
4395.591449
4431.256366
4437.003737
4429.186295
4440.246665
4440.525561
4427.775126
4426.872166
4430.148374
4463.525989
4389.266775
4432.163248
4442.389200
4376.596444
4496.446208
4436.690027
4448.732774
4430.616771
4425.721393
4444.378278
4440.181703
4474.932487
4413.440470
4486.384891
4492.261809
4427.977652
4428.932520
4413.969940
4419.582314
4443.347915
4408.590151
4423.036289
4448.488250
4439.900079
4440.918522
4427.241770
4427.586366
4402.953952
4419.072156
4446.628506
4430.600569
4459.643237
4465.076480
4460.447413
4467.985521
4444.079436
4437.017263
4399.435534
4428.224931
4421.917012
4419.077360
4431.210960
4450.230097
4417.367396
4442.666421
4416.508168
4423.760520
4454.180524
4442.561966
4466.941259
4386.352595
4440.106235
4424.159357
4425.320653
4432.115850
4422.816874
4404.562129
4432.000056
4431.424413
4456.157369
4413.642504
4415.705468
4420.214397
4411.434538
4392.665851
4437.426710
4431.009615
4442.636240
4426.489695
4425.019168
4436.193488
4424.024052
4442.527688
4444.384589
4475.840090
4431.626487
4473.681421
4423.602399
4435.712080
4485.011437
4431.945066
4417.363216
4411.871076
4399.819892
4424.501798
4436.502537
4432.407220
4420.332890
4443.333177
4438.817064
4436.251750
4435.229937
4438.753705
4432.401540
4429.476716
4430.601898
4435.129834
4385.604302
4389.669793
4467.735882
4463.089907
4401.381847
4480.974395
4424.874932
4415.469749
4426.892144
4477.457254
4438.951754
4423.551835
4360.234981
4431.576658
4386.273629
4444.990433
4473.375236
4422.191490
4483.771451
4454.669891
4448.856118
4424.931708
4441.068526
4426.843666
4411.517287
4432.340775
4440.423827
4424.430043
4456.806229
4401.617778
4437.781376
4407.493827
4443.561004
4434.878247
4441.792653
4373.449695
4431.819939
4436.365739
4433.176641
4416.864300
4435.213231
4437.477140
4450.964809
4424.268662
4450.069132
4434.280161
4435.773853
4355.750768
4459.402196
4418.268906
4436.753374
4412.526150
4414.377926
4442.299540
4423.542433
4431.859103
4438.046598
4435.073828
4412.570194
4440.877949
4428.741513
4412.816599
4460.703986
4419.358468
4439.298896
4463.310675
4442.696886
4418.759165
4418.518401
4447.711947
4435.607420
4464.965277
4379.920179
4453.868540
4433.614981
4440.049250
4427.853842
4446.932502
4448.535002
4403.392556
4359.946306
4466.500077
4427.367122
4422.819140
4388.417807
4418.417199
4435.416554
4421.991736
4426.225437
4422.507836
4432.478249
4422.506367
4431.450530
4423.291645
4416.808493
4421.465786
4390.195416
4391.573863
4410.630639
4441.278367
4429.412887
4429.331470
4455.701830
4421.415902
4440.153147
4397.169585
4351.443020
4393.564849
4422.241288
4378.753443
4374.881796
4446.789404
4430.482576
4414.561873
4420.992359
4424.634289
4414.841582
4436.934513
4428.902108
4437.466237
4444.199382
4421.867102
4428.460040
4430.493550
4430.773035
4430.947409
4430.802837
4430.281875
4429.884046
4429.447491
4429.587829
4430.320725
4431.515068
4431.999002
4431.722780
4431.263237
4430.632061
4429.267032
4430.085272
4429.042727
4428.825753
4429.545424
4430.698437
4432.215456
4433.336727
4433.710411
4432.198307
4429.711834
4428.372976
4428.969902
4430.413693
4430.850609
4429.560499
4430.114845
4431.414626
4431.907998
4431.578351
4430.177512
4428.817290
4427.340824
4427.211242
4428.643453
4431.980658
4433.419235
4432.161615
4430.555538
4428.788052
4430.040969
4429.826416
4428.684183
4428.180597
4428.709021
4430.219881
4431.756565
4433.625663
4433.663674
4432.366405
4428.806474
4426.787435
4427.130035
4428.661086
4429.223089
4429.897971
4429.783752
4431.402078
4431.822675
4431.479014
4429.932072
4428.455952
4426.453460
4426.527440
4427.696526
4431.285615
4433.094510
4432.387478
4429.378260
4429.993679
4429.838668
4429.498906
4428.808172
4427.326044
4428.929309
4429.257648
4431.935340
4432.605053
4434.039931
4430.921371
4429.447627
4425.359578
4428.026803
4428.266007
4429.707187
4429.686801
4429.561825
4431.335626
4431.564578
4431.328515
4429.532643
4428.173276
4425.990155
4426.075732
4427.416359
4430.408636
4432.848069
4431.741593
4428.804109
4428.401992
4429.532148
4429.532472
4428.422175
4427.464315
4428.163731
4429.567305
4430.979174
4432.918478
4432.993239
4431.190371
4428.456109
4425.330992
4426.449837
4427.897459
4429.120335
4428.958274
4429.817914
4430.654231
4431.640076
4431.029565
4429.284052
4427.917244
4425.614961
4425.870912
4426.859541
4430.141803
4432.430472
4431.715030
4429.291445
4429.182637
4429.300474
4429.405226
4428.227039
4427.276464
4427.916405
4429.336212
4430.710861
4432.562040
4432.634489
4430.815271
4428.144372
4425.015845
4426.710813
4427.373255
4430.193108
4428.950931
4429.515077
4430.764088
4431.385955
4430.722462
4429.276518
4427.228928
4425.789773
4425.481113
4426.594908
4429.655727
4432.008599
4430.576602
4427.367111
4423.523081
4429.119766
4429.346675
4428.010971
4426.987467
4427.824072
4428.814822
4430.839935
4432.037343
4432.598194
4430.610835
4427.659055
4424.932018
4425.159353
4426.567936
4427.004395
4428.782601
4429.263460
4430.703207
4431.149990
4430.556317
4429.048454
4427.138359
4425.518935
4425.637869
4426.231828
4429.607973
4432.323935
4430.978892
4428.381237
4429.328163
4437.800309
4452.381933
4410.529078
4466.943136
4450.504168
4462.228189
4430.279368
4422.478813
4407.853219
4462.460578
4462.447285
4394.851927
4444.508637
4469.151937
4432.030342
4417.946823
4428.872775
4429.143358
4428.083380
4426.444974
4427.905094
4428.462135
4430.705122
4431.934076
4432.202408
4430.457241
4428.364026
4424.212227
4428.003506
4428.240312
4429.722867
4437.563906
4426.338273
4421.739336
4428.426792
4408.168264
4442.128269
4436.616295
4448.557676
4389.794657
4389.508019
4433.620171
4413.893386
4422.723392
4383.743493
4466.911307
4407.277068
4428.371926
4429.181201
4430.431342
4430.966447
4430.562958
4428.570946
4427.495198
4424.867240
4426.338729
4425.734735
4429.547172
4432.727694
4430.932686
4428.470804
4430.401198
4445.729057
4451.182947
4438.042800
4446.425122
4397.706519
4448.484887
4409.559302
4423.861267
4406.584838
4444.647284
4453.745919
4420.983204
4418.196173
4444.396103
4415.811408
4415.371735
4428.696324
4429.224197
4427.770218
4426.553813
4427.404568
4428.935910
4429.974636
4432.403654
4431.039332
4430.989068
4428.065397
4424.152390
4427.454568
4426.884593
4428.931958
4448.065273
4432.679374
4417.423532
4404.625158
4396.552973
4446.087082
4435.428333
4413.539374
4431.211948
4431.160728
4411.518237
4438.179098
4399.401462
4411.455470
4434.119308
4453.319790
4428.316403
4429.395807
4429.969360
4431.205587
4430.203945
4428.877246
4427.030385
4425.305730
4425.928629
4425.784485
4428.835018
4433.115170
4429.704665
4428.697134
4428.129911
4446.984370
4425.218910
4419.909801
4463.244411
4424.339284
4437.630215
4435.780447
4471.872467
4434.011616
4447.750333
4407.371944
4426.822796
4440.426112
4418.547373
4435.683364
4420.473614
4428.367233
4429.271670
4427.542494
4426.751316
4427.037833
4429.215043
4429.773619
4432.316927
4430.792220
4430.789512
4428.048566
4424.376521
4426.969399
4427.822029
4426.024888
4438.058865
4432.283865
4431.425963
4382.428878
4482.535271
4399.375053
4422.762846
4450.331241
4465.016610
4388.706146
4441.411879
4436.720635
4409.216668
4419.763072
4452.498845
4418.450939
4428.450847
4429.529007
4429.729921
4431.300227
4430.015012
4429.034443
4426.652492
4425.869835
4425.712509
4426.106159
4428.232679
4433.315099
4429.021298
4429.103789
4428.320055
4434.694780
4445.835597
4453.812156
4453.662274
4336.092879
4437.299428
4426.748266
4427.210583
4406.625672
4442.111706
4445.687534
4484.706099
4473.820682
4427.663890
4471.185179
4418.774773
4428.283464
4429.193595
4427.468851
4426.673170
4426.889541
4429.021572
4429.711780
4432.219684
4430.696517
4430.803389
4428.284736
4424.622613
4427.401047
4427.456505
4426.751094
4415.423464
4401.477383
4367.798762
4382.510801
4393.726125
4482.324336
4428.816713
4422.606598
4421.155197
4431.196288
4436.384160
4391.820247
4430.622288
4377.723867
4456.775088
4417.473378
4428.387813
4429.195379
4429.948720
4430.805860
4430.326929
4428.436645
4427.072959
4425.616944
4426.747638
4425.514738
4428.817979
4433.140231
4430.353702
4429.214234
4428.308601
4435.172561
4438.696545
4391.216028
4403.087209
4442.290731
4434.920676
4428.574499
4422.987725
4491.774847
4456.632556
4381.281802
4404.501671
4460.148547
4401.954450
4430.400806
4404.147505
4428.356533
4428.850185
4427.772197
4426.248961
4427.229919
4428.425193
4429.999876
4431.791536
4430.909602
4430.638062
4428.315094
4424.839083
4427.490293
4427.210574
4429.262650
4445.207978
4429.816236
4437.775151
4448.969666
4372.662201
4418.353267
4427.668976
4435.943075
4382.203398
4439.842322
4454.903411
4498.246901
4397.979199
4398.010556
4425.950875
4440.608034
4428.307575
4429.153689
4429.774621
4430.772946
4430.234961
4428.398988
4426.958658
4426.078084
4426.877327
4425.333381
4428.488108
4433.017488
4430.497765
4429.005168
4427.554504
4424.734833
4447.607889
4409.746267
4452.656574
4452.049253
4433.386698
4454.693288
4474.494985
4432.283695
4441.060810
4426.078955
4437.293777
4466.629341
4397.979958
4459.286421
4409.257701
4428.276653
4429.092500
4427.388501
4426.820165
4426.510101
4429.029070
4429.323298
4431.909160
4430.606556
4430.532189
4427.753116
4424.637520
4425.946518
4426.494669
4424.902607
4425.375294
4477.975760
4445.628042
4373.418077
4438.908572
4421.130825
4444.903625
4415.097729
4461.117661
4430.872778
4425.341251
4434.623538
4441.934510
4414.777559
4412.868441
4420.363859
4428.180305
4429.449586
4429.252966
4431.046734
4430.272063
4428.309901
4426.942525
4426.667855
4426.414457
4425.572397
4427.539181
4432.863394
4428.788209
4427.833505
4425.722624
4428.462560
4420.213620
4436.051235
4421.813366
4397.681026
4442.494811
4447.642096
4432.602290
4422.767238
4435.796337
4460.908849
4408.716313
4409.399710
4387.196684
4466.897666
4444.006016
4428.090612
4429.218504
4427.311752
4427.032750
4426.253329
4429.430119
4428.948522
4432.006522
4430.205160
4430.459658
4427.345573
4424.796178
4425.567910
4426.304097
4426.767818
4406.271384
4455.684196
4398.501338
4436.666350
4454.321371
4432.704646
4425.828803
4425.100225
4408.932365
4452.251119
4414.313865
4419.645483
4388.435909
4417.754482
4388.731225
4448.281953
4428.049673
4429.606139
4428.970972
4431.433638
4429.852011
4428.486400
4426.650472
4427.230213
4426.314477
4425.822384
4427.324031
4432.464326
4429.009379
4427.804372
4425.542246
4435.562132
4420.916881
4410.512360
4447.456676
4389.671962
4403.590601
4424.062886
4448.543771
4439.640849
4431.787650
4429.678967
4410.099275
4444.786975
4460.471806
4414.218271
4400.716971
4428.289210
4429.114861
4427.567839
4426.701352
4426.702600
4428.675817
4429.217092
4432.175123
4430.044528
4430.557054
4427.584317
4425.309865
4425.679399
4425.948893
4424.945911
4421.787744
4410.738604
4428.367814
4416.989825
4411.413083
4441.866388
4420.119458
4429.147877
4420.465578
4446.741546
4508.157079
4441.002285
4431.847846
4423.847450
4451.756133
4427.738002
4428.262781
4429.248262
4429.442642
4431.048353
4429.852723
4428.387394
4426.968361
4427.008269
4427.447209
4425.606188
4427.125976
4432.734084
4429.672745
4427.921502
4427.009091
4434.807991
4417.617505
4443.289495
4438.805397
4393.508169
4430.033596
4454.680486
4418.901235
4442.569968
4411.547381
4471.419271
4418.614293
4437.022473
4448.995451
4393.096573
4417.297933
4428.606548
4429.183285
4427.601778
4426.810557
4426.587591
4428.439694
4429.387288
4431.951787
4430.415888
4430.035972
4428.296950
4424.896094
4426.445236
4425.523803
4425.707446
4450.442609
4452.234777
4433.509691
4452.734269
4383.781405
4416.689962
4444.478146
4372.698125
4466.910498
4440.409355
4446.283920
4430.475757
4454.722722
4463.993531
4397.864266
4411.969243
4428.365128
4428.950996
4429.598846
4430.515963
4430.630183
4427.510739
4427.775915
4426.787872
4428.063841
4425.031127
4427.301565
4433.144146
4428.618044
4427.028241
4426.834216
4442.931077
4444.077647
4401.470967
4463.037565
4388.599309
4435.768775
4436.542343
4439.879096
4468.088793
4456.456666
4472.426454
4415.810655
4398.706987
4457.593541
4365.493736
4425.222632
4428.426042
4429.500431
4427.472040
4427.269080
4425.940096
4429.599499
4428.768233
4431.996075
4430.963841
4430.440118
4427.459448
4425.630882
4425.225196
4424.667056
4424.817655
4423.687361
4423.530801
4414.990719
4392.214845
4432.242037
4442.343941
4447.050861
4412.498513
4384.822576
4448.114666
4400.717418
4440.472914
4451.028893
4409.839588
4397.787391
4444.053166
4428.262832
4429.535127
4428.457093
4431.755764
4430.209900
4428.498501
4427.406569
4428.802354
4426.700104
4425.384139
4428.182967
4431.707714
4428.446695
4427.873968
4425.619704
4424.999242
4408.937602
4429.773338
4427.998614
4458.180291
4420.732768
4436.161630
4502.396755
4415.144521
4399.468554
4423.379964
4397.457988
4484.661305
4414.302241
4561.401595
4413.339874
4428.350407
4429.302724
4428.126752
4426.916040
4426.691870
4429.128957
4428.625063
4432.379388
4430.783791
4429.830026
4427.323772
4427.103330
4425.582355
4426.242354
4422.982310
4440.614623
4421.431821
4440.134980
4434.771015
4465.842040
4465.220369
4440.881092
4447.851275
4481.435279
4441.447883
4433.642782
4442.267058
4453.931558
4442.569767
4273.399881
4427.157747
4428.619232
4429.713301
4428.506258
4431.765003
4429.687810
4428.516182
4426.627943
4429.104993
4425.969014
4426.696577
4427.893886
4431.081621
4427.766280
4427.704171
4424.430308
4424.167657
4374.257125
4377.035557
4399.043062
4443.720411
4412.586195
4436.622116
4441.526875
4447.161641
4422.158987
4402.078868
4449.941118
4440.068174
4430.505271
4385.024421
4404.530930