# vtk DataFile Version 2.0
mfree iwf
ASCII

DATASET UNSTRUCTURED_GRID
POINTS 9579 float
0.000000 0.000445 0.000000
0.000000 0.000450 0.000000
0.000000 0.000455 0.000000
0.000000 0.000460 0.000000
0.000000 0.000465 0.000000
0.000000 0.000470 0.000000
0.000000 0.000475 0.000000
0.000000 0.000480 0.000000
0.000000 0.000485 0.000000
0.000000 0.000490 0.000000
-0.000000 0.000496 0.000000
0.000002 0.000500 0.000000
0.000359 0.000737 0.000000
0.000364 0.000744 0.000000
0.000396 0.000778 0.000000
0.000402 0.000781 0.000000
0.000402 0.000781 0.000000
0.000406 0.000785 0.000000
0.000412 0.000790 0.000000
0.000410 0.000789 0.000000
0.000420 0.000797 0.000000
0.000441 0.000814 0.000000
0.000447 0.000816 0.000000
0.000452 0.000817 0.000000
0.000456 0.000819 0.000000
0.000461 0.000820 0.000000
0.000465 0.000822 0.000000
0.000471 0.000823 0.000000
0.000474 0.000824 0.000000
0.000481 0.000826 0.000000
0.000487 0.000828 0.000000
0.000511 0.000838 0.000000
0.000005 0.000445 0.000000
0.000005 0.000450 0.000000
0.000005 0.000455 0.000000
0.000005 0.000460 0.000000
0.000005 0.000465 0.000000
0.000005 0.000470 0.000000
0.000005 0.000475 0.000000
0.000005 0.000480 0.000000
0.000005 0.000485 0.000000
0.000006 0.000489 0.000000
0.000004 0.000496 0.000000
0.000006 0.000499 0.000000
0.000393 0.000774 0.000000
0.000405 0.000776 0.000000
0.000427 0.000800 0.000000
0.000432 0.000804 0.000000
0.000436 0.000807 0.000000
0.000439 0.000809 0.000000
0.000442 0.000810 0.000000
0.000446 0.000811 0.000000
0.000452 0.000813 0.000000
0.000458 0.000814 0.000000
0.000464 0.000817 0.000000
0.000470 0.000819 0.000000
0.000477 0.000819 0.000000
0.000484 0.000823 0.000000
0.000488 0.000824 0.000000
0.000494 0.000825 0.000000
0.000501 0.000832 0.000000
0.000505 0.000833 0.000000
0.000499 0.000832 0.000000
0.000510 0.000836 0.000000
0.000010 0.000445 0.000000
0.000011 0.000450 0.000000
0.000010 0.000455 0.000000
0.000011 0.000460 0.000000
0.000009 0.000465 0.000000
0.000011 0.000469 0.000000
0.000010 0.000475 0.000000
0.000011 0.000480 0.000000
0.000009 0.000486 0.000000
0.000012 0.000490 0.000000
0.000009 0.000497 0.000000
0.000011 0.000498 0.000000
0.000398 0.000772 0.000000
0.000409 0.000776 0.000000
0.000418 0.000789 0.000000
0.000422 0.000794 0.000000
0.000426 0.000797 0.000000
0.000430 0.000801 0.000000
0.000432 0.000794 0.000000
0.000440 0.000800 0.000000
0.000442 0.000804 0.000000
0.000448 0.000807 0.000000
0.000454 0.000808 0.000000
0.000460 0.000813 0.000000
0.000464 0.000809 0.000000
0.000470 0.000811 0.000000
0.000474 0.000816 0.000000
0.000482 0.000820 0.000000
0.000497 0.000826 0.000000
0.000499 0.000828 0.000000
0.000507 0.000831 0.000000
0.000513 0.000830 0.000000
0.000015 0.000445 0.000000
0.000016 0.000450 0.000000
0.000014 0.000455 0.000000
0.000016 0.000459 0.000000
0.000014 0.000466 0.000000
0.000017 0.000470 0.000000
0.000014 0.000475 0.000000
0.000017 0.000480 0.000000
0.000014 0.000485 0.000000
0.000016 0.000488 0.000000
0.000014 0.000495 0.000000
0.000017 0.000498 0.000000
0.000025 0.000500 0.000000
0.000410 0.000780 0.000000
0.000420 0.000789 0.000000
0.000424 0.000787 0.000000
0.000434 0.000796 0.000000
0.000434 0.000803 0.000000
0.000444 0.000800 0.000000
0.000448 0.000802 0.000000
0.000454 0.000800 0.000000
0.000458 0.000807 0.000000
0.000472 0.000806 0.000000
0.000468 0.000814 0.000000
0.000478 0.000813 0.000000
0.000482 0.000815 0.000000
0.000487 0.000817 0.000000
0.000489 0.000819 0.000000
0.000495 0.000820 0.000000
0.000502 0.000822 0.000000
0.000505 0.000825 0.000000
0.000514 0.000826 0.000000
0.000020 0.000445 0.000000
0.000021 0.000450 0.000000
0.000019 0.000456 0.000000
0.000021 0.000460 0.000000
0.000018 0.000465 0.000000
0.000022 0.000467 0.000000
0.000019 0.000475 0.000000
0.000022 0.000479 0.000000
0.000020 0.000487 0.000000
0.000022 0.000491 0.000000
0.000021 0.000497 0.000000
0.000022 0.000499 0.000000
0.000039 0.000500 0.000000
0.000415 0.000776 0.000000
0.000418 0.000781 0.000000
0.000423 0.000783 0.000000
0.000426 0.000792 0.000000
0.000436 0.000791 0.000000
0.000444 0.000794 0.000000
0.000453 0.000804 0.000000
0.000449 0.000797 0.000000
0.000461 0.000803 0.000000
0.000466 0.000799 0.000000
0.000473 0.000803 0.000000
0.000477 0.000805 0.000000
0.000484 0.000811 0.000000
0.000489 0.000811 0.000000
0.000498 0.000814 0.000000
0.000499 0.000818 0.000000
0.000508 0.000820 0.000000
0.000509 0.000824 0.000000
0.000516 0.000823 0.000000
0.000025 0.000445 0.000000
0.000025 0.000450 0.000000
0.000026 0.000454 0.000000
0.000025 0.000460 0.000000
0.000025 0.000467 0.000000
0.000026 0.000471 0.000000
0.000024 0.000476 0.000000
0.000027 0.000481 0.000000
0.000023 0.000484 0.000000
0.000026 0.000488 0.000000
0.000026 0.000492 0.000000
0.000027 0.000500 0.000000
0.000377 0.000759 0.000000
0.000414 0.000781 0.000000
0.000416 0.000784 0.000000
0.000430 0.000788 0.000000
0.000435 0.000786 0.000000
0.000440 0.000795 0.000000
0.000448 0.000792 0.000000
0.000443 0.000790 0.000000
0.000454 0.000796 0.000000
0.000459 0.000799 0.000000
0.000464 0.000806 0.000000
0.000467 0.000802 0.000000
0.000475 0.000810 0.000000
0.000482 0.000808 0.000000
0.000493 0.000815 0.000000
0.000493 0.000810 0.000000
0.000504 0.000817 0.000000
0.000502 0.000812 0.000000
0.000511 0.000818 0.000000
0.000517 0.000818 0.000000
0.000030 0.000445 0.000000
0.000030 0.000450 0.000000
0.000029 0.000457 0.000000
0.000033 0.000461 0.000000
0.000029 0.000463 0.000000
0.000030 0.000468 0.000000
0.000032 0.000472 0.000000
0.000030 0.000477 0.000000
0.000031 0.000486 0.000000
0.000031 0.000492 0.000000
0.000033 0.000497 0.000000
0.000031 0.000499 0.000000
0.000049 0.000500 0.000000
0.000408 0.000770 0.000000
0.000427 0.000779 0.000000
0.000430 0.000784 0.000000
0.000432 0.000780 0.000000
0.000440 0.000786 0.000000
0.000452 0.000788 0.000000
0.000460 0.000794 0.000000
0.000455 0.000791 0.000000
0.000466 0.000795 0.000000
0.000472 0.000798 0.000000
0.000484 0.000803 0.000000
0.000481 0.000800 0.000000
0.000487 0.000805 0.000000
0.000491 0.000803 0.000000
0.000495 0.000808 0.000000
0.000507 0.000807 0.000000
0.000507 0.000813 0.000000
0.000513 0.000813 0.000000
0.000518 0.000813 0.000000
0.000035 0.000445 0.000000
0.000035 0.000450 0.000000
0.000037 0.000454 0.000000
0.000034 0.000456 0.000000
0.000035 0.000466 0.000000
0.000037 0.000472 0.000000
0.000032 0.000479 0.000000
0.000042 0.000479 0.000000
0.000035 0.000482 0.000000
0.000034 0.000488 0.000000
0.000038 0.000491 0.000000
0.000036 0.000498 0.000000
0.000354 0.000725 0.000000
0.000375 0.000756 0.000000
0.000421 0.000772 0.000000
0.000430 0.000776 0.000000
0.000442 0.000781 0.000000
0.000442 0.000777 0.000000
0.000447 0.000787 0.000000
0.000453 0.000783 0.000000
0.000462 0.000791 0.000000
0.000462 0.000786 0.000000
0.000471 0.000789 0.000000
0.000477 0.000797 0.000000
0.000481 0.000795 0.000000
0.000494 0.000800 0.000000
0.000499 0.000805 0.000000
0.000501 0.000800 0.000000
0.000503 0.000807 0.000000
0.000511 0.000807 0.000000
0.000515 0.000809 0.000000
0.000520 0.000809 0.000000
0.000040 0.000445 0.000000
0.000040 0.000450 0.000000
0.000038 0.000462 0.000000
0.000041 0.000456 0.000000
0.000041 0.000462 0.000000
0.000040 0.000468 0.000000
0.000042 0.000473 0.000000
0.000037 0.000477 0.000000
0.000041 0.000487 0.000000
0.000043 0.000491 0.000000
0.000041 0.000497 0.000000
0.000045 0.000498 0.000000
0.000331 0.000577 0.000000
0.000402 0.000772 0.000000
0.000415 0.000770 0.000000
0.000431 0.000768 0.000000
0.000437 0.000781 0.000000
0.000445 0.000783 0.000000
0.000449 0.000780 0.000000
0.000458 0.000786 0.000000
0.000467 0.000789 0.000000
0.000472 0.000794 0.000000
0.000471 0.000785 0.000000
0.000481 0.000790 0.000000
0.000486 0.000796 0.000000
0.000492 0.000794 0.000000
0.000489 0.000798 0.000000
0.000497 0.000800 0.000000
0.000505 0.000802 0.000000
0.000510 0.000801 0.000000
0.000516 0.000804 0.000000
0.000521 0.000804 0.000000
0.000045 0.000445 0.000000
0.000046 0.000450 0.000000
0.000046 0.000456 0.000000
0.000045 0.000462 0.000000
0.000044 0.000467 0.000000
0.000046 0.000473 0.000000
0.000045 0.000479 0.000000
0.000040 0.000484 0.000000
0.000052 0.000486 0.000000
0.000046 0.000483 0.000000
0.000048 0.000493 0.000000
0.000050 0.000498 0.000000
0.000331 0.000585 0.000000
0.000392 0.000771 0.000000
0.000422 0.000777 0.000000
0.000436 0.000775 0.000000
0.000438 0.000773 0.000000
0.000451 0.000777 0.000000
0.000456 0.000780 0.000000
0.000460 0.000781 0.000000
0.000466 0.000783 0.000000
0.000476 0.000786 0.000000
0.000476 0.000791 0.000000
0.000487 0.000792 0.000000
0.000480 0.000785 0.000000
0.000495 0.000790 0.000000
0.000500 0.000794 0.000000
0.000505 0.000796 0.000000
0.000510 0.000796 0.000000
0.000513 0.000799 0.000000
0.000518 0.000800 0.000000
0.000523 0.000799 0.000000
0.000050 0.000445 0.000000
0.000051 0.000450 0.000000
0.000048 0.000455 0.000000
0.000052 0.000458 0.000000
0.000050 0.000464 0.000000
0.000051 0.000472 0.000000
0.000050 0.000468 0.000000
0.000050 0.000477 0.000000
0.000047 0.000488 0.000000
0.000053 0.000491 0.000000
0.000058 0.000492 0.000000
0.000053 0.000498 0.000000
0.000335 0.000668 0.000000
0.000392 0.000764 0.000000
0.000405 0.000769 0.000000
0.000429 0.000771 0.000000
0.000442 0.000770 0.000000
0.000445 0.000773 0.000000
0.000450 0.000773 0.000000
0.000455 0.000774 0.000000
0.000468 0.000776 0.000000
0.000465 0.000778 0.000000
0.000475 0.000778 0.000000
0.000485 0.000782 0.000000
0.000486 0.000787 0.000000
0.000491 0.000787 0.000000
0.000498 0.000791 0.000000
0.000504 0.000787 0.000000
0.000504 0.000791 0.000000
0.000513 0.000792 0.000000
0.000519 0.000795 0.000000
0.000524 0.000795 0.000000
0.000054 0.000445 0.000000
0.000056 0.000450 0.000000
0.000055 0.000456 0.000000
0.000055 0.000462 0.000000
0.000056 0.000466 0.000000
0.000055 0.000472 0.000000
0.000057 0.000477 0.000000
0.000057 0.000480 0.000000
0.000053 0.000483 0.000000
0.000057 0.000486 0.000000
0.000056 0.000497 0.000000
0.000060 0.000497 0.000000
0.000342 0.000691 0.000000
0.000389 0.000770 0.000000
0.000398 0.000767 0.000000
[...]
POINT_DATA 9579
SCALARS density float 1
LOOKUP_TABLE default
4430.175165
4428.028520
4424.376257
4420.490188
4421.042828
4429.853609
4435.655640
4437.542450
4445.588462
4424.297787
4433.670501
4399.291480
4424.786677
4439.595244
4432.327441
4428.821067
4439.620282
4440.449856
4450.341247
4444.564607
4421.347821
4424.704146
4414.475480
4448.183293
4429.983317
4419.497546
4445.167178
4442.566842
4418.240302
4456.268359
4438.700117
4448.085038
4426.744501
4430.896931
4428.466035
4441.483170
4444.625911
4425.767416
4421.800520
4412.828686
4393.118830
4428.009211
4438.423905
4402.675772
4423.951689
4432.080748
4412.947058
4407.224964
4418.828997
4411.142075
4422.245771
4456.101905
4416.410484
4433.472573
4431.896957
4391.787747
4415.488357
4396.931658
4395.269796
4424.008969
4405.117745
4410.236015
4412.230462
4417.882817
4422.145925
4430.256586
4437.039233
4403.564325
4425.553363
4404.215748
4460.814434
4404.275941
4485.551118
4359.570010
4474.185115
4406.556464
4413.168615
4491.070964
4431.296004
4387.563194
4403.351035
4420.222358
4449.552732
4400.787394
4452.024961
4403.905538
4406.946654
4422.866388
4423.685173
4398.820607
4459.982427
4400.033665
4450.485925
4444.955639
4448.911360
4418.645375
4435.681686
4444.073508
4441.375100
4435.067573
4459.914035
4411.387302
4453.621131
4359.504505
4475.480615
4409.963182
4515.725722
4396.822621
4437.506381
4348.851488
4433.960700
4415.313623
4446.174201
4450.284124
4427.041987
4432.991341
4424.135272
4427.819816
4431.496389
4445.226065
4419.697079
4464.347551
4459.846254
4482.251509
4448.453286
4342.640243
4506.862466
4451.644942
4434.849033
4424.494002
4436.756592
4419.889740
4439.805686
4421.687896
4439.411244
4459.068735
4476.100851
4355.655060
4479.969991
4441.326281
4421.692878
4383.871398
4467.331200
4410.710981
4537.206422
4442.251003
4480.326931
4445.234995
4420.918334
4406.449948
4433.740247
4444.927736
4425.187999
4418.420462
4388.555018
4441.683453
4455.844253
4439.157714
4352.857889
4439.581536
4429.876714
4445.684608
4427.129233
4438.551558
4450.271446
4402.918646
4445.502005
4368.481496
4419.411895
4465.445100
4407.073067
4429.670802
4424.865129
4468.053604
4380.156439
4335.911311
4470.748379
4382.700960
4418.862945
4403.283915
4430.220160
4426.428574
4454.077905
4413.873788
4425.590030
4442.919836
4365.179408
4491.162638
4462.748280
4385.595184
4423.134045
4422.027541
4431.237711
4420.032555
4421.402754
4432.636523
4423.743475
4451.936472
4417.754312
4453.802730
4439.735262
4420.477931
4454.548880
4426.006697
4415.731364
4428.149184
4410.479332
4468.707890
4409.964183
4422.715937
4450.357787
4445.944426
4427.452756
4416.518514
4415.980224
4424.305871
4409.118270
4447.685158
4397.898104
4440.662819
4483.082089
4405.456616
4428.144239
4443.137400
4435.571876
4422.918535
4440.163169
4438.963240
4413.568184
4426.651211
4457.390369
4420.671854
4409.105191
4437.153312
4411.409692
4444.850187
4422.162048
4418.037190
4435.291599
4437.623725
4446.259005
4444.219629
4444.885797
4417.603141
4433.766513
4450.343091
4426.756168
4448.554719
4430.166209
4445.315409
4385.471593
4458.333401
4452.328481
4401.843575
4422.138018
4414.545046
4429.017285
4421.037529
4432.033714
4385.142086
4446.552932
4444.370277
4434.350091
4419.948959
4452.125423
4437.933990
4439.842073
4422.264076
4584.748003
4396.976935
4438.054593
4442.353432
4406.499389
4435.597086
4423.512996
4417.435176
4437.476515
4435.145577
4446.602011
4402.866799
4443.236254
4398.683573
4426.434680
4438.736364
4428.759223
4388.047002
4448.850880
4439.864368
4430.579932
4428.561026
4448.104042
4411.588894
4397.924331
4422.868687
4457.724681
4426.396404
4450.922357
4413.724466
4472.255960
4438.740368
4521.463365
4418.590969
4433.378544
4446.773814
4442.458868
4436.396703
4437.556629
4441.444094
4422.111020
4421.457658
4439.050939
4437.762425
4441.364149
4438.171304
4403.937613
4407.117083
4446.633665
4471.085882
4396.334719
4421.521452
4432.506062
4402.435825
4445.720811
4418.646665
4423.026865
4448.585673
4447.871662
4365.770114
4371.614784
4407.497975
4516.880865
4415.953482
4427.751719
4498.414302
4428.603074
4443.912730
4448.883532
4418.936906
4457.268570
4417.924145
4456.285332
4417.614146
4444.391768
4409.824663
4440.046621
4429.093398
4444.934056
4418.730477
4457.002701
4412.092547
4423.581911
4435.043311
4430.129250
4426.133609
4429.225269
4456.269765
4396.822590
4424.789397
4427.825523
4440.339850
4477.339412
4353.717329
4428.120812
4396.904281
4432.803143
4404.037369
4488.888952
4428.278436
4442.436226
4410.798301
4423.796102
4452.086791
4413.636167
4440.265441
4433.620895
4415.539445
4413.575331
4432.639950
4429.546315
4434.497762
4451.266355
4429.869525
4440.926205
4414.103332
4420.379056
4413.342884
4464.127988
4441.361744
4422.221654
4451.698334
4445.104124
4412.617480
4484.825995
4416.242339
4440.647236
4432.882093
4412.261315
4435.625231
4435.043638
4389.344820
4372.928433
4455.708454
4425.056456
4443.537864
4408.059022
4424.365348
4439.906226
4444.370828
4425.291984
4427.977409
4464.058935
4457.305006
4427.393446
4416.253250
4428.876403
4431.610166
4439.052584
4425.054289
4400.610662
4457.631173
4434.369343
4418.393695
4401.708000
4441.150096
4455.370443
4363.465220
4467.077829
4428.357118
4424.518068
4408.952508
4430.895708
4424.486972
4458.283809
4409.648794
4408.268354
4414.832258
4400.521797
4427.811945
4455.071027
4449.496866
4404.130383
4430.990232
4416.842099
4411.362443
4427.925212
4450.715528
4419.086909
4425.354300
4431.729871
4437.523100
4409.527775
4395.989721
4412.792472
4458.732681
4401.434552
4436.398939
4376.813255
4440.126170
4430.919075
4447.752509
4512.715580
4421.785554
4417.189235
4470.862911
4444.681945
4427.652729
4449.783070
4481.647710
4370.118432
4437.293567
4428.982886
4414.918030
4436.170778
4435.574859
4423.815782
4449.644403
4437.356481
4416.549039
4426.886774
4429.227564
4437.713903
4413.804606
4423.502988
4443.738101
4450.529942
4416.098588
4445.898504
4464.021419
4479.109369
4332.704288
4444.612462
4451.893277
4427.609050
4417.588684
4419.144353
4328.904571
4440.692014
4458.981777
4431.495742
4446.897610
4440.471015
4418.261228
4445.527690
4449.942635
4445.160004
4451.101063
4433.193278
4406.594553
4422.988539
4428.218686
4432.526980
4425.745020
4419.083855
4425.520913
4441.201549
4410.910817
4420.587649
4402.648828
4460.078391
4400.645059
4449.311000
4484.911644
4419.734846
4418.249945
4416.509671
4432.631234
4453.084874
4432.948695
4446.252376
4415.083765
4427.824335
4419.778432
4445.299731
4456.961624
4436.905497
4445.187370
4451.333063
4412.539312
4419.954244
4424.718958
4438.635934
4448.216885
4415.373769
4434.754162
4439.140614
4425.194594
4415.124927
4467.968103
4470.852254
4416.173953
4428.201801
4425.295971
4391.247135
4357.386851
4431.010397
4466.313980
4512.578292
4509.363135
4458.218867
4435.176005
4414.814941
4385.355182
4466.834240
4472.296969
4456.250995
4489.793761
4420.653219
4394.921574
4438.190511
4456.098804
4397.743928
4426.413971
4412.937279
4434.845145
4431.344334
4424.297887
4422.689994
4425.136902
4445.852089
4410.311084
4400.157761
4464.008954
4445.299268
4471.115486
4451.812183
4440.991691
4390.695579
4428.439841
4418.698757
4416.330624
4431.282414
4413.983133
4438.482276
4426.584739
4404.839424
4403.835879
4397.937596
4436.616535
4394.569804
4425.516296
4446.542137
4429.642246
4451.719104
4435.633325
4435.805144
4421.348867
4430.223998
4421.343399
4442.633396
4431.869845
4406.444828
4435.608521
4427.924974
4383.086606
4427.937882
4399.873488
4476.259903
4440.846432
4432.691658
4438.691655
4412.080219
4422.513602
4458.413565
4427.347895
4410.298599
4437.879128
4440.932166
4393.607518
4499.352253
4411.623662
4452.977533
4402.205907
4427.080061
4418.490987
4440.642783
4398.556261
4425.791023
4432.252277
4433.715855
4429.129076
4418.197340
4420.563427
4441.454180
4423.369192
4441.331625
4454.493147
4392.990874
4386.126831
4448.277315
4469.628697
4384.238992
4541.212996
4431.279165
4422.102919
4422.288841
4458.373203
4431.659964
4443.214176
4439.966593
4446.223032
4435.471938
4465.077876
4471.784435
4391.374674
4466.844176
4451.058882
4431.750579
4461.009097
4447.265795
4403.290601
4435.843713
4420.917794
4447.610379
4430.035206
4411.108726
4417.878642
4439.243481
4444.847075
4386.749600
4450.046886
4486.583160
4368.974943
4428.612160
4435.028370
4438.192365
4430.447187
4418.287368
4401.925779
4440.659282
4457.063988
4476.089546
4444.146292
4402.421073
4346.315902
4450.678710
4458.290071
4470.091928
4415.969951
4415.307402
4424.466749
4428.882522
4421.224791
4438.257057
4431.833646
4427.194536
4421.597607
4451.429099
4441.831054
4415.192927
4410.826411
4440.276969
4396.753518
4449.365448
4388.229776
4387.639873
4476.570517
4430.530556
4439.610216
4417.910229
4467.136144
4455.475851
4441.983499
4432.508729
4408.077393
4439.914761
4365.647643
4338.675511
4445.591383
4418.894394
4417.242948
4459.225163
4423.477493
4470.667563
4413.867400
4419.082318
4427.903056
4434.787463
4444.489614
4409.782985
4420.611006
4421.680152
4426.535708
4419.463809
4447.972422
4463.037162
4458.342214
4412.528227
4429.506039
4412.601761
4424.201287
4384.340232
4360.015782
4459.873584
4459.245013
4413.111666
4428.072029
4456.306059
4435.177633
4420.625013
4445.475897
4458.351299
4451.404693
4443.995696
4431.687057
4414.396371
4419.406428
4449.169729
4424.068900
4420.375708
4429.063416
4428.732711
4429.122691
4429.533242
4429.645135
4429.958610
4430.020710
4430.389234
4430.507191
4430.891128
4430.903618
4430.930883
4430.512867
4429.937069
4423.273257
4428.149203
4428.229640
4428.981197
4429.473020
4429.690164
4430.111599
4430.131073
4430.349256
4430.041963
4430.141581
4430.008932
4430.256143
4430.562615
4431.039391
4425.420550
4428.001556
4427.924303
4428.253460
4428.949669
4428.782196
4429.446244
4429.290900
4429.899967
4430.098595
4430.704000
4430.496095
4430.385488
4430.366700
4429.167729
4426.329259
4428.138905
4428.319770
4428.632767
4429.141156
4429.338963
4429.634763
4429.613919
4429.865208
4429.278188
4429.227048
4428.885342
4429.192256
4428.837484
4429.864922
4427.365457
4428.273226
4428.313775
4428.213241
4428.717523
4428.422567
4429.062504
4428.821391
4429.402244
4429.426140
4430.343294
4429.556371
4430.227314
4428.026090
4428.661044
4427.546513
4428.383815
4428.731382
4428.307778
4429.358726
4428.767498
4429.648841
4428.940929
4429.704251
4428.627276
4428.885218
4428.222859
4428.583614
4427.727042
4429.104008
4427.688198
4428.517619
4428.475269
4428.289351
4428.540088
4428.285279
4428.754182
4428.523445
4429.061965
4429.069045
4429.911971
4429.460556
4429.522350
4427.998096
4429.386388
4427.837791
4428.769591
4428.501896
4428.589041
4428.948195
4428.914160
4429.095359
4429.006920
4429.076877
4428.639730
4428.510447
4427.883653
4428.905774
4427.712633
4427.530996
4427.665957
4428.654401
4428.440096
4428.235248
4428.404615
4428.134607
4428.473388
4428.316135
4428.736032
4428.937631
4429.592064
4429.868045
4429.501591
4429.044404
4429.397410
4427.924560
4428.817012
4428.409965
4428.605804
4428.708263
4428.822413
4428.785399
4428.837082
4428.628661
4428.610294
4428.102234
4428.341857
4428.942573
4429.382754
4429.879655
4427.535158
4428.755474
4428.192009
4428.219057
4428.124581
4428.030434
4428.059247
4428.047185
4428.414755
4428.544377
4429.540811
4429.405869
4430.376072
4429.745480
4430.043015
4427.613214
4428.800333
4428.219457
4428.421045
4428.569251
4428.423913
4428.601814
4428.318615
4428.471265
4427.964979
4427.943679
4427.769128
4428.570268
4429.067028
4430.986730
4427.595828
4428.596537
4428.120555
4428.112265
4427.828041
4427.865744
4427.625528
4427.909536
4427.713853
4428.481224
4428.356556
4429.082727
4429.005442
4429.193766
4429.807553
4426.465950
4430.510950
4422.677955
4452.174482
4422.018367
4462.459625
4431.386065
4417.217279
4393.283672
4413.865680
4429.597135
4436.716173
4402.722629
4444.983759
4426.803535
4412.778540
4427.558411
4428.643824
4428.126204
4428.127500
4428.367888
4428.144947
4428.214178
4428.010458
4427.918898
4427.227861
4427.283375
4426.771469
4426.604771
4427.658228
4427.342316
4432.243236
4440.036366
4412.742732
4412.725805
4415.638218
4444.891996
4425.179620
4381.745682
4446.314195
4430.899162
4414.723158
4456.166974
4414.968043
4456.232166
4394.394972
4400.150922
4427.132584
4428.355113
4427.991387
4427.762106
4427.819790
4427.115301
4427.744475
4426.783279
4427.680467
4427.274526
4428.065405
4427.448324
4428.333630
4426.120438
4428.810610
4432.610289
4454.506205
4420.423395
4436.641638
4407.154058
4448.453265
4425.009311
4403.686969
4436.205306
4434.620778
4453.012209
4413.282096
4421.556288
4429.597989
4395.271088
4446.540809
4427.255305
4428.325608
4428.133688
4427.601700
4428.234492
4427.680711
4427.832734
4427.565849
4427.404102
4426.510052
4426.753079
4425.362865
4426.203160
4423.394381
4426.846253
4420.743270
4431.642572
4396.012550
4377.303059
4402.699066
4445.422074
4437.025025
4462.361484
4402.595643
4413.063295
4445.301524
4433.684581
4384.254798
4388.957190
4423.257644
4433.774728
4426.770252
4428.347301
4427.568231
4427.671905
4427.402494
4426.911779
4427.239903
4426.660159
4427.001157
4427.147535
4427.015866
4426.562040
4426.499268
4424.334283
4422.966172
4441.745369
4444.130937
4413.300813
4463.502249
4461.816150
4432.350607
4488.455831
4427.436773
4397.085413
4459.036129
4432.579961
4458.200007
4392.794801
4394.974812
4435.022912
4411.790820
4426.754892
4428.393434
4427.472324
4427.885107
4427.385982
4427.780220
4427.367110
4427.338997
4427.121860
4425.937828
4426.064209
4425.159776
4424.499850
4423.879917
4423.369967
4427.231969
4417.297589
4443.660567
4446.376692
4486.710440
4385.540574
4457.913712
4421.431779
4439.497283
4384.018375
4388.531077
4422.561257
4414.338900
4452.758555
4451.100204
4424.336740
4426.784843
4428.005313
4427.725911
4427.104479
4427.484122
4426.796898
4426.910538
4426.898688
4426.356264
4427.332678
4426.256675
4426.421369
4426.282363
4424.497827
4424.660956
4444.686030
4435.736934
4458.116155
4392.487972
4342.829578
4434.944523
4434.860957
4570.036724
4440.820464
4445.220678
4417.892091
4435.100461
4456.874537
4414.734345
4477.976615
4392.325130
4426.596325
4428.114374
4427.440444
4427.691994
4427.464319
4427.340459
4427.700752
4426.774987
4427.252880
4425.483526
4426.283532
4425.001970
4424.869573
4425.260048
4425.038740
4434.228792
4415.692131
4447.809566
4405.373100
4403.458237
4473.745424
4467.416225
4437.402909
4419.417177
4408.811258
4460.266258
4387.089024
4437.593129
4460.637525
4442.397732
4438.230877
4426.504417
4427.885641
4427.587104
4427.070362
4427.426436
4426.844747
4427.069972
4426.425543
4426.903259
4426.637783
4426.792234
4426.660746
4426.804485
4426.191720
4426.575191
4425.873044
4448.778577
4401.674271
4430.947881
4442.386042
4431.370578
4402.996135
4422.519312
4434.756900
4442.761464
4409.392666
4391.529906
4436.961392
4458.919480
4410.914510
4406.072890
4426.480650
4427.805123
4427.743036
4427.138344
4427.924209
4426.940025
4427.514194
4427.050348
4426.363339
4425.945078
4425.963146
4424.696690
4426.229681
4424.638147
4426.876931
4423.368095
4435.300362
4431.097419
4442.626104
4375.344693
4413.066949
4404.548907
4438.557750
4413.252463
4411.576171
4407.801283
4440.038455
4329.451803
4417.172153
4491.850598
4439.682651
4426.495859
4427.940106
4427.354310
4427.522145
4426.961899
4426.931098
4426.994466
4425.724892
4427.014640
4426.072158
4426.756531
4426.729658
4425.889210
4424.541932
4425.120738
4432.986762
4433.827567
4434.887522
4430.503356
4434.975142
4427.885590
4446.382934
4469.195923
4420.029034
4411.361397
4436.591451
4427.147085
4458.945653
4473.595152
4403.847640
4389.147658
4426.595958
4427.819275
4427.664878
4427.058592
4427.664127
4426.789332
4427.061967
4426.883495
4426.428280
4425.689611
4426.357787
4424.300787
4425.652511
4424.188689
4423.087881
4446.220331
4450.070844
4433.603436
4431.574740
4409.359745
4421.416490
4451.826764
4473.532527
4466.121936
4417.913292
4426.153143
4392.833404
4432.501928
4394.003152
4395.318575
4469.165479
4426.636541
4427.676816
4427.826225
4426.811298
4427.473065
4426.278690
4427.223719
4426.041732
4426.813984
4427.090696
4426.406971
4426.738493
4425.504351
4425.014924
4426.494988
4434.854446
4397.839403
4427.929744
4408.076972
4393.616063
4454.036822
4431.734513
4452.061560
4426.082512
4416.373261
4435.499977
4419.528679
4440.471495
4403.774966
4467.136738
4471.640943
4426.729487
4428.036439
4427.296506
4427.782817
4427.030714
4427.510857
4427.282165
4427.030806
4427.355117
4425.163500
4426.152361
4424.534682
4425.408514
4424.064893
4426.269828
4444.561024
4408.492696
4418.690467
4439.752514
4424.027128
4421.819756
4467.414542
4439.429959
4449.291276
4441.178054
4442.697008
4448.751371
4422.842303
4428.629377
4428.578284
4451.348866
4426.523345
4427.868036
4427.828685
4426.857892
4427.818909
4426.834889
4427.209097
4426.776413
4426.203028
4426.785925
4426.414258
4425.682461
4426.316903
4425.076042
4424.245122
4426.693528
4425.920122
4415.848016
4432.321660
4450.222486
4443.940129
4431.041946
4478.320826
4441.239993
4460.140650
4408.147843
4418.489602
4421.393837
4421.780433
4406.733315
4417.814827
4426.898478
4427.860858
4427.831180
4427.580341
4427.885639
4427.164695
4427.951263
4426.501396
4427.569551
4425.455841
4426.081754
4425.542454
4425.505805
4424.883973
4425.576503
4414.807198
4423.229417
4451.314242
4404.151937
4361.090718
4428.031512
4690.767062
4478.770595
4447.134183
4458.607463
4437.673352
4433.219325
4435.684519
4407.512444
4459.432488
4419.757848
4426.871347
4428.199375
4427.666470
4427.909531
4427.293106
4427.842437
4427.184869
4427.511828
4426.975627
4427.322809
4427.319544
4426.822878
4426.567219
4425.554196
4426.625244
4426.255512
4424.286300
4411.646350
4476.487256
4383.665061
4426.377514
4449.396173
4465.137308
4491.136899
4437.990993
4492.504562
4439.108065
4433.856390
4437.388925
4388.808013
4426.833823
4427.008564
4428.103175
4427.991789
4427.335467
4428.258156
4427.152829
4427.756743
4427.117081
4426.824053
4425.805044
4425.895517
4424.420392
4426.676196
4425.222131
4423.417960
4448.983227
4448.451614
4458.618850
4403.497714
4366.221874
4397.739670
4487.109864
4464.107056
4463.001300
4413.517298
4450.048606
4427.154855
4475.990617
4438.433983
4473.041709
4423.990243
4427.273263
4427.810827
4428.308424
4427.426898
4427.738105
4426.541335
4427.714667
4425.411517
4426.832547
4425.857422
4426.825567
4427.255517
4426.161247
4424.564360
4429.217317
4442.277202
4404.406600
4417.946809
4431.120857
4345.790043
4399.956169
4476.031599
4441.783841
4446.621538
4410.957292
4436.037751
4402.372088
4384.823550
4447.532320
4466.613177
4423.339194
4427.306423
4428.316045
4427.984995
4427.531749
4427.553678
4427.477679
4427.258672
4427.560824
4427.407282
4426.906384
4427.209156
4425.079152
4426.685605
4423.533655
4425.445803
4442.162703
4437.292359
4429.801338
4411.992439
4396.131797
4447.340106
4342.467796
4460.476077
4450.089918
4420.313324
4434.574860
4415.323244
4369.481197
4397.446620
4342.787596
4430.047101
4427.400574
4428.090793
4428.237951
4427.330926
4428.418110
4427.186837
4428.579447
4427.321032
4428.247306
4427.774799
4427.978200
4425.783034
4426.317060
4426.683449
4423.191590
4448.345700
4451.363299
4432.201844
4437.705041
4450.274802
4468.486821
4479.762412
4447.934302
4457.539379
4475.736538
4474.374359
4427.602869
4412.181413
4418.314520
4519.773523
4412.897688
4427.409605
4428.189533
4428.532155
4427.962491
4428.358059
4427.907014
4428.371189
4427.155614
4428.379232
4425.613174
4425.264808
4424.786772
4425.270782
4423.785725
4428.078373
4435.182481
4431.310308
4418.131732
4414.858608
4430.602941
4462.933048
4468.448731
4448.868127
4463.343288
4447.718731
4448.105017
4455.001529
4441.688537
4415.209568
4397.623005
4442.592220
4427.812405
4428.823698
4428.124653
4428.456797
4427.974272
4428.230156
4427.203778
4427.984355
4426.419466
4427.071519
4425.523702
4423.657668
4425.992581
4424.827110
4425.639207
4422.117067
4417.162958
4414.037971
4427.789961
4460.850091
4455.208770
4476.078101
4457.505538
4432.937029
4475.472933
4467.220475
4449.639702
4437.939167
4426.077236
4393.352852
4403.015043