# vtk DataFile Version 2.0
mfree iwf
ASCII

DATASET UNSTRUCTURED_GRID
POINTS 9672 float
0.000000 0.000445 0.000000
0.000000 0.000450 0.000000
0.000000 0.000455 0.000000
0.000000 0.000460 0.000000
0.000000 0.000465 0.000000
0.000000 0.000470 0.000000
0.000000 0.000475 0.000000
0.000000 0.000480 0.000000
0.000000 0.000485 0.000000
0.000000 0.000490 0.000000
-0.000000 0.000496 0.000000
0.000002 0.000500 0.000000
0.000388 0.000755 0.000000
0.000393 0.000762 0.000000
0.000428 0.000794 0.000000
0.000433 0.000797 0.000000
0.000433 0.000797 0.000000
0.000438 0.000801 0.000000
0.000444 0.000805 0.000000
0.000442 0.000803 0.000000
0.000452 0.000811 0.000000
0.000475 0.000827 0.000000
0.000481 0.000829 0.000000
0.000485 0.000830 0.000000
0.000490 0.000831 0.000000
0.000495 0.000832 0.000000
0.000499 0.000833 0.000000
0.000505 0.000835 0.000000
0.000508 0.000835 0.000000
0.000515 0.000837 0.000000
0.000521 0.000839 0.000000
0.000546 0.000846 0.000000
0.000005 0.000445 0.000000
0.000005 0.000450 0.000000
0.000005 0.000455 0.000000
0.000005 0.000460 0.000000
0.000005 0.000465 0.000000
0.000005 0.000470 0.000000
0.000005 0.000475 0.000000
0.000005 0.000480 0.000000
0.000005 0.000485 0.000000
0.000006 0.000489 0.000000
0.000004 0.000496 0.000000
0.000006 0.000499 0.000000
0.000424 0.000790 0.000000
0.000436 0.000791 0.000000
0.000459 0.000814 0.000000
0.000464 0.000818 0.000000
0.000469 0.000820 0.000000
0.000472 0.000822 0.000000
0.000475 0.000823 0.000000
0.000480 0.000824 0.000000
0.000485 0.000825 0.000000
0.000491 0.000826 0.000000
0.000498 0.000828 0.000000
0.000504 0.000830 0.000000
0.000510 0.000830 0.000000
0.000518 0.000834 0.000000
0.000522 0.000834 0.000000
0.000528 0.000835 0.000000
0.000536 0.000841 0.000000
0.000539 0.000842 0.000000
0.000533 0.000841 0.000000
0.000544 0.000845 0.000000
0.000010 0.000445 0.000000
0.000011 0.000450 0.000000
0.000010 0.000455 0.000000
0.000011 0.000460 0.000000
0.000010 0.000465 0.000000
0.000011 0.000470 0.000000
0.000010 0.000475 0.000000
0.000011 0.000480 0.000000
0.000009 0.000486 0.000000
0.000012 0.000490 0.000000
0.000009 0.000497 0.000000
0.000011 0.000498 0.000000
0.000428 0.000788 0.000000
0.000440 0.000791 0.000000
0.000450 0.000804 0.000000
0.000454 0.000808 0.000000
0.000458 0.000811 0.000000
0.000462 0.000814 0.000000
0.000464 0.000807 0.000000
0.000472 0.000813 0.000000
0.000474 0.000817 0.000000
0.000481 0.000820 0.000000
0.000487 0.000821 0.000000
0.000493 0.000824 0.000000
0.000497 0.000821 0.000000
0.000503 0.000822 0.000000
0.000507 0.000827 0.000000
0.000516 0.000831 0.000000
0.000531 0.000836 0.000000
0.000533 0.000837 0.000000
0.000541 0.000840 0.000000
0.000547 0.000838 0.000000
0.000015 0.000445 0.000000
0.000016 0.000450 0.000000
0.000014 0.000455 0.000000
0.000016 0.000460 0.000000
0.000014 0.000466 0.000000
0.000017 0.000470 0.000000
0.000014 0.000475 0.000000
0.000017 0.000480 0.000000
0.000014 0.000485 0.000000
0.000016 0.000488 0.000000
0.000014 0.000495 0.000000
0.000017 0.000498 0.000000
0.000025 0.000500 0.000000
0.000441 0.000795 0.000000
0.000452 0.000804 0.000000
0.000456 0.000801 0.000000
0.000466 0.000810 0.000000
0.000467 0.000817 0.000000
0.000477 0.000813 0.000000
0.000481 0.000815 0.000000
0.000487 0.000812 0.000000
0.000491 0.000820 0.000000
0.000504 0.000817 0.000000
0.000501 0.000826 0.000000
0.000511 0.000824 0.000000
0.000515 0.000826 0.000000
0.000520 0.000827 0.000000
0.000523 0.000829 0.000000
0.000528 0.000830 0.000000
0.000535 0.000832 0.000000
0.000539 0.000834 0.000000
0.000548 0.000834 0.000000
0.000020 0.000445 0.000000
0.000021 0.000450 0.000000
0.000019 0.000456 0.000000
0.000022 0.000459 0.000000
0.000018 0.000465 0.000000
0.000022 0.000467 0.000000
0.000019 0.000475 0.000000
0.000022 0.000478 0.000000
0.000020 0.000487 0.000000
0.000021 0.000491 0.000000
0.000021 0.000497 0.000000
0.000022 0.000499 0.000000
0.000039 0.000500 0.000000
0.000446 0.000790 0.000000
0.000449 0.000795 0.000000
0.000455 0.000797 0.000000
0.000458 0.000806 0.000000
0.000468 0.000805 0.000000
0.000476 0.000807 0.000000
0.000486 0.000816 0.000000
0.000481 0.000810 0.000000
0.000493 0.000815 0.000000
0.000499 0.000810 0.000000
0.000507 0.000813 0.000000
0.000510 0.000817 0.000000
0.000517 0.000821 0.000000
0.000522 0.000821 0.000000
0.000532 0.000824 0.000000
0.000533 0.000827 0.000000
0.000541 0.000829 0.000000
0.000543 0.000833 0.000000
0.000549 0.000831 0.000000
0.000025 0.000445 0.000000
0.000025 0.000450 0.000000
0.000026 0.000454 0.000000
0.000025 0.000460 0.000000
0.000025 0.000467 0.000000
0.000025 0.000471 0.000000
0.000024 0.000476 0.000000
0.000027 0.000481 0.000000
0.000023 0.000484 0.000000
0.000026 0.000488 0.000000
0.000026 0.000492 0.000000
0.000027 0.000500 0.000000
0.000407 0.000776 0.000000
0.000445 0.000796 0.000000
0.000447 0.000799 0.000000
0.000462 0.000802 0.000000
0.000467 0.000800 0.000000
0.000472 0.000808 0.000000
0.000481 0.000804 0.000000
0.000474 0.000803 0.000000
0.000486 0.000808 0.000000
0.000492 0.000811 0.000000
0.000497 0.000816 0.000000
0.000500 0.000814 0.000000
0.000508 0.000821 0.000000
0.000514 0.000817 0.000000
0.000526 0.000824 0.000000
0.000526 0.000818 0.000000
0.000538 0.000826 0.000000
0.000534 0.000820 0.000000
0.000545 0.000826 0.000000
0.000550 0.000826 0.000000
0.000030 0.000445 0.000000
0.000030 0.000450 0.000000
0.000029 0.000457 0.000000
0.000033 0.000460 0.000000
0.000029 0.000463 0.000000
0.000030 0.000468 0.000000
0.000032 0.000472 0.000000
0.000030 0.000477 0.000000
0.000031 0.000487 0.000000
0.000031 0.000492 0.000000
0.000033 0.000497 0.000000
0.000031 0.000499 0.000000
0.000049 0.000500 0.000000
0.000438 0.000786 0.000000
0.000458 0.000792 0.000000
0.000461 0.000798 0.000000
0.000463 0.000794 0.000000
0.000471 0.000799 0.000000
0.000484 0.000800 0.000000
0.000492 0.000807 0.000000
0.000486 0.000804 0.000000
0.000497 0.000806 0.000000
0.000504 0.000810 0.000000
0.000517 0.000812 0.000000
0.000512 0.000811 0.000000
0.000519 0.000816 0.000000
0.000524 0.000813 0.000000
0.000528 0.000818 0.000000
0.000539 0.000817 0.000000
0.000540 0.000822 0.000000
0.000546 0.000822 0.000000
0.000552 0.000822 0.000000
0.000035 0.000445 0.000000
0.000035 0.000450 0.000000
0.000037 0.000454 0.000000
0.000034 0.000457 0.000000
0.000035 0.000467 0.000000
0.000037 0.000472 0.000000
0.000032 0.000479 0.000000
0.000042 0.000479 0.000000
0.000035 0.000482 0.000000
0.000034 0.000488 0.000000
0.000038 0.000491 0.000000
0.000036 0.000498 0.000000
0.000382 0.000744 0.000000
0.000405 0.000774 0.000000
0.000452 0.000787 0.000000
0.000461 0.000790 0.000000
0.000473 0.000795 0.000000
0.000473 0.000790 0.000000
0.000478 0.000800 0.000000
0.000484 0.000796 0.000000
0.000493 0.000803 0.000000
0.000494 0.000798 0.000000
0.000504 0.000800 0.000000
0.000510 0.000808 0.000000
0.000513 0.000806 0.000000
0.000527 0.000809 0.000000
0.000532 0.000815 0.000000
0.000534 0.000808 0.000000
0.000536 0.000816 0.000000
0.000544 0.000815 0.000000
0.000547 0.000818 0.000000
0.000553 0.000817 0.000000
0.000040 0.000445 0.000000
0.000040 0.000450 0.000000
0.000037 0.000462 0.000000
0.000041 0.000457 0.000000
0.000042 0.000463 0.000000
0.000039 0.000468 0.000000
0.000042 0.000473 0.000000
0.000037 0.000477 0.000000
0.000041 0.000487 0.000000
0.000042 0.000492 0.000000
0.000041 0.000497 0.000000
0.000045 0.000498 0.000000
0.000351 0.000591 0.000000
0.000433 0.000788 0.000000
0.000445 0.000785 0.000000
0.000462 0.000782 0.000000
0.000468 0.000794 0.000000
0.000478 0.000796 0.000000
0.000478 0.000792 0.000000
0.000489 0.000798 0.000000
0.000499 0.000801 0.000000
0.000503 0.000805 0.000000
0.000500 0.000796 0.000000
0.000513 0.000800 0.000000
0.000518 0.000806 0.000000
0.000524 0.000804 0.000000
0.000520 0.000809 0.000000
0.000529 0.000810 0.000000
0.000537 0.000811 0.000000
0.000542 0.000810 0.000000
0.000548 0.000813 0.000000
0.000554 0.000812 0.000000
0.000045 0.000445 0.000000
0.000046 0.000450 0.000000
0.000046 0.000455 0.000000
0.000045 0.000461 0.000000
0.000044 0.000467 0.000000
0.000046 0.000474 0.000000
0.000046 0.000479 0.000000
0.000040 0.000484 0.000000
0.000052 0.000485 0.000000
0.000046 0.000483 0.000000
0.000048 0.000493 0.000000
0.000050 0.000498 0.000000
0.000351 0.000600 0.000000
0.000423 0.000787 0.000000
0.000453 0.000792 0.000000
0.000467 0.000788 0.000000
0.000469 0.000787 0.000000
0.000483 0.000791 0.000000
0.000487 0.000791 0.000000
0.000491 0.000794 0.000000
0.000498 0.000793 0.000000
0.000508 0.000797 0.000000
0.000508 0.000803 0.000000
0.000519 0.000802 0.000000
0.000512 0.000796 0.000000
0.000527 0.000800 0.000000
0.000532 0.000803 0.000000
0.000538 0.000806 0.000000
0.000542 0.000804 0.000000
0.000546 0.000808 0.000000
0.000550 0.000808 0.000000
0.000555 0.000807 0.000000
0.000050 0.000445 0.000000
0.000051 0.000450 0.000000
0.000048 0.000455 0.000000
0.000052 0.000459 0.000000
0.000049 0.000464 0.000000
0.000050 0.000472 0.000000
0.000051 0.000468 0.000000
0.000051 0.000477 0.000000
0.000047 0.000488 0.000000
0.000053 0.000491 0.000000
0.000058 0.000492 0.000000
0.000053 0.000498 0.000000
0.000359 0.000689 0.000000
0.000422 0.000780 0.000000
0.000435 0.000784 0.000000
0.000459 0.000785 0.000000
0.000473 0.000783 0.000000
0.000476 0.000786 0.000000
0.000480 0.000786 0.000000
0.000485 0.000785 0.000000
0.000499 0.000787 0.000000
0.000495 0.000790 0.000000
0.000506 0.000788 0.000000
0.000516 0.000793 0.000000
0.000517 0.000797 0.000000
0.000522 0.000797 0.000000
0.000529 0.000800 0.000000
0.000536 0.000796 0.000000
0.000535 0.000800 0.000000
0.000545 0.000801 0.000000
0.000551 0.000803 0.000000
0.000556 0.000802 0.000000
0.000054 0.000445 0.000000
0.000056 0.000450 0.000000
0.000055 0.000455 0.000000
0.000055 0.000462 0.000000
0.000056 0.000466 0.000000
0.000055 0.000473 0.000000
0.000057 0.000477 0.000000
0.000057 0.000480 0.000000
0.000052 0.000483 0.000000
0.000057 0.000486 0.000000
0.000056 0.000497 0.000000
0.000060 0.000497 0.000000
0.000368 0.000711 0.000000
0.000420 0.000787 0.000000
0.000428 0.000783 0.000000
[...]
POINT_DATA 9672
SCALARS density float 1
LOOKUP_TABLE default
4430.116714
4428.592437
4424.940959
4422.041194
4425.153488
4430.365592
4432.278788
4438.347116
4445.329449
4424.875591
4434.119088
4399.500216
4424.411904
4441.099078
4433.355476
4433.673894
4444.750870
4443.622156
4453.954683
4447.525221
4420.943316
4425.053277
4413.838533
4448.259230
4430.781949
4419.670796
4445.333646
4444.062376
4417.061696
4455.920100
4436.739725
4445.842915
4427.127959
4430.743684
4428.053038
4436.318156
4437.732128
4426.589765
4426.513560
4414.501215
4391.462096
4426.638559
4439.072566
4403.098284
4424.883047
4428.702795
4415.084347
4407.566414
4418.414126
4408.268898
4426.329169
4457.291288
4409.459579
4427.455096
4421.194954
4393.910330
4423.785581
4396.049566
4401.716973
4437.701786
4403.145239
4411.291939
4411.069292
4416.508010
4421.218108
4432.815435
4437.646921
4412.257314
4427.994661
4402.736443
4458.676585
4400.362766
4488.399523
4359.790226
4473.126349
4406.080898
4412.736811
4498.117521
4429.111875
4385.378941
4402.432881
4420.615399
4454.141845
4409.402376
4447.773364
4408.699031
4408.968205
4436.816174
4410.682960
4406.243876
4450.000786
4407.324756
4452.016344
4449.182757
4458.554727
4418.932684
4435.695337
4444.472666
4438.541824
4424.308866
4462.072039
4412.901971
4454.596912
4364.951342
4476.084197
4407.147515
4517.499269
4395.913376
4438.859829
4338.529016
4436.248032
4419.243864
4442.281626
4450.191618
4434.507697
4423.416406
4441.559669
4435.021552
4412.129358
4461.942293
4409.927826
4468.233339
4443.564642
4481.065265
4429.501902
4341.022654
4498.433693
4453.428191
4436.375665
4422.593924
4435.522255
4434.861110
4432.363342
4426.787798
4437.718318
4455.666880
4475.815634
4356.307678
4480.983130
4442.159119
4421.113095
4388.673754
4473.362772
4409.926276
4537.122999
4434.843861
4478.486166
4440.932005
4412.586793
4396.412009
4405.481710
4436.688340
4438.411294
4410.061486
4393.287070
4461.689638
4467.511829
4451.897069
4342.742868
4436.099284
4429.466373
4448.969559
4429.599643
4435.960345
4449.076573
4404.683719
4444.136957
4367.517068
4422.392857
4465.577546
4399.937669
4429.991754
4425.352623
4462.967820
4382.027283
4335.268663
4471.351623
4382.577293
4425.427464
4409.851838
4423.012979
4430.509961
4462.622568
4435.391279
4440.906958
4446.205538
4380.785576
4477.267470
4454.898353
4364.360632
4430.558917
4417.606544
4432.586646
4421.919644
4411.526906
4448.787096
4411.737347
4454.191119
4413.113353
4454.826121
4439.213820
4427.083325
4454.563172
4424.789785
4416.744334
4428.392053
4429.253083
4462.960664
4402.614015
4425.376781
4441.014672
4454.522361
4430.324739
4439.903321
4423.984992
4423.150304
4395.124462
4442.528941
4386.374136
4438.876840
4487.530558
4384.100597
4432.380780
4445.376919
4433.418410
4418.995503
4436.808147
4448.108430
4416.073635
4431.534597
4456.825839
4420.037960
4407.317725
4433.257558
4407.685515
4444.808495
4420.729909
4419.608515
4440.726539
4439.832800
4435.468398
4443.616292
4433.808226
4425.231389
4426.471259
4430.247439
4417.175882
4458.291426
4418.464338
4446.488283
4394.477129
4442.960968
4488.175921
4384.593591
4423.983609
4413.055791
4426.017723
4420.593371
4424.591128
4385.321108
4451.884974
4445.509041
4434.914840
4416.652420
4452.759530
4433.690363
4442.065411
4424.034869
4575.867111
4396.936471
4429.259075
4443.533538
4407.317416
4437.648479
4443.502594
4436.454428
4439.621893
4420.927886
4450.117981
4400.732016
4450.398523
4386.450869
4443.182708
4444.383270
4413.589607
4404.545012
4454.508450
4428.433090
4431.921007
4427.530142
4441.003207
4432.255673
4394.548194
4429.229876
4450.981378
4433.151857
4454.422459
4406.328293
4465.975874
4439.830252
4477.190858
4422.304545
4418.311444
4449.987924
4454.248249
4435.280334
4427.195078
4447.796137
4433.830968
4441.176121
4438.237357
4433.975992
4433.888888
4448.058961
4406.546904
4443.913342
4438.841153
4456.902450
4411.867243
4420.649652
4433.631593
4408.227394
4440.689443
4410.457681
4415.084970
4446.147869
4449.938779
4366.990427
4379.129933
4409.440479
4518.097833
4416.073734
4431.246162
4472.750528
4432.340146
4439.757279
4444.956233
4412.077500
4455.700945
4413.181416
4452.969133
4407.146499
4440.815125
4401.817726
4441.764383
4434.524985
4442.152181
4444.214114
4426.594702
4408.883670
4430.147270
4435.900837
4424.946298
4423.452118
4439.641585
4455.552549
4409.197637
4421.661538
4442.804428
4438.371576
4475.566434
4345.833124
4425.865714
4397.825083
4433.854829
4407.916755
4493.085768
4428.705747
4444.647398
4428.214194
4415.233414
4468.048585
4389.706745
4439.176695
4441.673903
4414.673751
4424.105753
4418.617642
4435.812862
4435.316088
4447.114394
4444.813159
4431.732280
4417.335052
4427.762605
4417.838896
4454.853570
4427.516531
4422.940378
4450.184637
4429.621264
4416.897727
4487.288640
4420.551980
4439.495209
4431.920376
4413.129118
4433.139982
4430.777616
4386.280241
4373.206090
4453.166088
4427.114943
4437.103218
4413.725979
4416.513284
4442.272567
4432.299974
4416.060594
4426.373051
4456.046948
4453.772804
4415.484605
4417.248285
4420.249908
4433.615990
4440.741688
4422.240203
4406.709641
4464.384462
4439.411824
4426.524017
4402.926423
4434.814178
4456.323711
4359.020019
4471.811549
4426.484148
4426.737689
4411.775448
4441.617653
4431.671612
4464.094833
4400.742807
4403.869456
4417.202728
4402.232973
4427.074546
4464.091309
4453.084101
4407.355779
4427.473748
4418.370871
4428.570091
4427.675033
4449.355272
4429.540621
4423.949480
4426.464652
4434.123145
4411.702950
4399.772925
4416.687881
4460.946902
4403.233546
4434.591670
4372.785747
4442.137394
4431.199163
4450.733113
4440.297902
4416.560930
4423.450077
4476.073961
4450.535058
4434.762771
4461.496673
4472.288750
4376.679313
4437.275146
4418.584987
4423.461209
4415.713476
4455.175231
4436.433252
4439.910890
4421.383732
4411.524226
4426.158167
4431.212365
4439.335360
4418.643417
4419.545755
4448.887824
4441.830204
4433.233861
4449.062299
4467.119844
4479.018875
4326.216755
4435.565170
4452.925038
4428.433475
4417.656272
4422.958932
4348.497190
4430.782540
4461.417479
4418.695798
4457.590209
4441.632081
4419.843441
4445.656668
4453.193012
4444.077603
4443.582009
4399.585800
4439.728036
4425.080587
4447.048715
4423.724562
4426.416518
4420.154028
4426.605455
4442.986946
4408.716261
4423.776179
4393.454210
4453.496734
4408.447611
4447.202605
4498.888416
4423.440833
4418.950413
4417.049675
4432.837053
4449.990002
4431.882387
4445.282000
4407.886421
4420.347987
4414.591535
4435.784884
4459.064797
4446.665253
4437.587167
4436.348646
4420.661158
4436.577366
4428.149037
4416.906569
4449.189812
4411.179026
4437.966421
4439.444084
4422.051652
4427.802022
4451.746097
4464.778451
4424.098651
4429.217127
4444.627582
4385.873535
4353.776546
4430.916085
4464.281915
4462.005309
4452.670279
4449.900248
4435.210725
4389.890070
4391.019450
4469.370475
4471.118449
4463.556459
4487.996051
4410.845303
4411.279449
4421.695674
4453.055573
4397.187735
4410.570022
4433.795964
4439.553172
4427.925474
4428.704882
4421.489168
4425.866737
4438.601417
4422.503127
4415.742216
4454.100125
4447.482395
4476.068628
4442.041184
4441.918464
4392.706372
4429.585046
4416.640421
4415.548601
4431.572986
4414.657766
4435.352816
4425.079711
4413.504873
4400.639934
4393.952482
4451.972269
4403.901926
4432.211578
4443.814007
4436.483932
4456.305360
4446.377177
4418.427416
4419.772813
4426.676719
4422.385121
4443.655829
4431.526957
4408.912921
4420.249545
4409.233435
4411.868627
4423.944358
4386.154090
4485.236568
4434.750399
4427.263823
4436.096373
4410.952281
4428.411918
4449.875929
4427.096329
4416.486840
4434.665201
4447.339033
4398.680925
4508.237969
4406.796960
4439.016371
4409.607618
4433.390576
4420.585801
4442.736223
4396.077224
4430.026684
4440.564239
4429.377043
4430.471022
4421.034805
4419.219215
4445.585856
4429.317757
4448.197298
4450.101190
4387.317951
4406.025811
4437.875846
4474.807620
4387.623587
4543.532967
4430.991685
4431.162062
4425.903695
4457.312597
4437.545507
4446.937629
4449.031978
4442.053164
4415.818022
4462.691687
4483.405347
4393.073121
4461.541090
4438.799487
4436.201990
4454.089787
4454.839421
4405.626248
4431.590637
4422.543008
4445.547526
4426.580222
4414.425073
4408.656529
4442.182759
4399.910823
4378.431634
4438.535021
4490.334954
4372.949190
4428.942548
4433.509972
4432.610038
4428.993138
4421.536697
4407.252204
4444.137919
4450.228846
4458.291062
4442.425405
4400.456729
4336.352166
4457.192906
4453.363387
4474.013019
4413.278561
4417.767947
4419.514984
4432.190844
4412.057437
4442.676265
4432.951247
4429.484218
4421.396504
4451.625873
4432.914542
4431.383270
4422.064614
4452.801828
4425.819539
4446.089390
4396.609071
4383.635435
4475.210316
4428.874025
4450.527256
4414.275267
4463.146611
4447.239854
4434.482451
4433.463675
4406.636155
4438.915585
4363.763595
4331.312162
4449.580154
4420.898007
4412.098094
4453.920926
4428.094130
4472.616676
4426.949486
4415.270814
4425.636602
4434.282546
4437.970912
4409.584750
4424.637557
4405.138481
4410.040898
4446.583859
4426.637936
4445.627690
4452.078938
4408.230631
4427.052095
4414.397196
4422.965007
4392.122488
4361.523684
4460.307315
4461.431410
4425.505182
4438.882530
4447.533621
4438.775834
4432.670544
4445.247647
4460.579474
4456.882162
4444.575784
4437.670294
4411.754170
4411.588635
4444.904478
4423.234852
4420.300338
4429.016849
4428.740304
4429.156573
4429.586031
4429.709464
4430.068755
4430.145701
4430.535447
4430.712217
4431.077476
4431.050666
4431.054216
4430.497989
4429.840749
4423.274734
4428.162559
4428.252485
4429.036917
4429.582917
4429.857152
4430.267562
4430.260502
4430.462614
4430.034633
4430.072394
4429.984309
4430.208877
4430.621350
4431.260468
4425.479259
4427.986455
4427.929051
4428.298444
4428.999453
4428.805642
4429.493040
4429.416632
4430.051822
4430.368314
4431.040081
4430.772520
4430.542030
4430.500960
4428.940152
4426.430803
4428.154846
4428.320190
4428.696981
4429.250669
4429.435495
4429.811295
4429.735639
4429.879220
4429.316811
4429.073284
4428.798853
4429.219857
4428.789172
4429.831180
4427.479229
4428.259483
4428.329950
4428.248516
4428.728526
4428.414346
4429.093361
4428.831641
4429.614226
4429.634338
4430.661403
4429.924174
4430.382867
4428.075785
4428.957523
4427.682443
4428.351382
4428.773732
4428.337848
4429.465516
4428.829406
4429.821480
4429.020794
4429.752456
4428.554862
4428.864002
4428.090962
4428.605157
4428.037370
4428.792693
4427.786692
4428.469393
4428.475557
4428.303056
4428.533837
4428.257244
4428.762991
4428.532748
4429.199161
4429.349189
4430.187995
4429.841456
4429.751199
4428.285857
4429.055077
4427.910838
4428.772132
4428.436332
4428.704824
4428.919005
4429.049815
4429.159700
4429.125074
4429.068241
4428.579160
4428.394465
4427.879402
4428.887465
4427.976804
4428.346934
4427.725589
4428.624410
4428.354219
4428.311783
4428.294724
4428.181801
4428.377414
4428.387987
4428.783996
4429.243500
4429.844053
4430.158957
4429.781282
4429.238450
4429.305058
4427.977055
4428.720594
4428.416815
4428.635764
4428.713252
4428.901553
4428.860284
4428.920005
4428.640547
4428.500526
4427.988714
4428.196889
4428.957012
4429.456122
4430.422483
4427.571857
4428.597622
4428.231507
4428.131661
4428.167579
4427.913739
4428.119578
4427.958194
4428.583581
4428.725159
4429.818397
4429.693771
4430.420183
4429.685152
4429.850768
4427.630061
4428.645960
4428.285528
4428.385557
4428.644219
4428.437358
4428.748041
4428.344388
4428.569828
4427.813587
4427.843699
4427.545071
4428.474693
4429.128368
4430.474198
4427.578298
4428.468231
4428.103051
4428.129516
4427.750845
4427.915297
4427.581738
4427.945240
4427.812876
4428.677386
4428.701145
4429.299080
4429.073019
4428.922107
4429.683664
4428.907366
4429.758007
4409.464671
4440.252934
4423.197383
4456.868544
4431.966783
4421.542947
4401.641579
4462.394933
4455.433017
4428.619981
4405.925780
4441.575435
4429.789903
4417.055723
4427.503140
4428.525990
4428.160442
4428.157025
4428.388269
4428.273142
4428.286435
4428.182131
4427.928326
4427.244349
4427.053721
4426.624033
4426.671906
4427.608525
4427.657974
4431.206639
4431.773494
4411.452119
4416.544662
4417.570803
4443.563783
4434.012860
4361.934771
4430.690823
4402.340800
4425.674607
4455.395500
4410.905815
4462.337163
4394.115754
4402.506578
4427.065055
4428.201844
4428.055031
4427.722408
4427.840836
4427.128835
4427.792129
4426.819035
4427.793775
4427.525820
4428.340849
4427.858389
4428.135723
4426.344068
4428.568760
4432.781633
4451.042508
4425.396448
4438.368661
4407.956850
4446.348192
4420.504617
4394.022092
4436.015377
4448.464746
4445.081787
4417.653935
4421.249603
4422.388251
4395.767960
4445.139826
4427.221342
4428.146806
4428.295428
4427.585131
4428.358829
4427.746010
4428.056902
4427.625661
4427.648972
4426.325947
4426.793120
4425.069201
4426.386403
4423.606826
4426.605300
4417.999272
4413.666728
4392.183983
4383.113316
4404.359549
4444.723480
4437.707932
4459.974055
4406.736598
4413.144508
4437.488608
4450.388356
4379.966028
4390.865586
4422.197257
4437.581925
4426.751283
4428.162028
4427.791029
4427.528826
4427.576573
4426.876828
4427.415124
4426.624001
4427.231492
4427.333203
4427.472801
4426.880558
4426.782229
4423.995835
4423.254077
4435.214902
4440.400855
4423.742239
4467.026840
4454.762834
4432.742967
4438.576398
4435.466225
4399.257558
4461.487949
4437.177911
4460.543954
4401.655396
4397.859931
4434.823860
4413.564188
4426.779753
4428.275560
4427.677580
4427.919978
4427.574827
4427.879356
4427.621080
4427.490746
4427.351112
4425.897241
4426.054026
4425.093838
4424.580188
4424.414197
4422.646481
4425.122400
4410.818509
4436.167276
4439.103258
4486.243939
4385.573249
4438.605848
4428.453630
4447.741943
4394.345189
4392.388810
4436.472798
4416.550293
4448.087529
4449.075175
4423.436906
4426.833313
4427.954583
4427.923069
4427.127774
4427.564729
4426.982480
4426.998689
4426.997903
4426.509609
4427.680184
4426.633369
4426.978296
4426.150024
4424.846880
4425.232449
4445.662461
4438.136578
4451.058349
4389.926274
4342.189977
4434.823368
4427.813019
4428.744388
4434.974901
4448.081092
4416.551223
4463.560264
4460.279925
4412.232452
4481.840170
4391.318297
4426.672817
4428.166231
4427.621494
4427.838495
4427.668684
4427.559924
4427.855939
4427.122558
4427.407928
4425.585007
4426.255575
4425.026685
4425.301365
4425.262204
4425.357582
4436.052171
4413.411331
4445.133723
4402.072135
4404.231982
4473.473583
4433.841324
4414.644757
4429.128147
4410.163286
4460.387229
4375.227143
4441.032269
4458.096495
4444.629660
4438.602198
4426.664169
4427.999994
4427.744911
4427.283044
4427.461164
4427.085514
4427.195940
4426.522649
4427.085786
4426.967833
4427.351932
4426.924500
4427.264520
4426.398926
4426.640257
4427.957246
4447.622547
4401.200124
4431.957296
4443.048926
4430.301366
4418.456689
4418.164533
4392.959598
4457.568615
4398.666827
4374.472757
4436.954370
4467.229093
4418.017266
4404.498290
4426.706148
4427.958465
4427.979341
4427.346131
4428.138913
4427.249187
4427.656892
4427.398695
4426.669126
4425.983376
4426.076359
4424.951878
4426.265634
4425.058562
4427.756030
4428.718814
4441.142337
4433.141091
4442.652157
4373.048925
4412.786433
4409.740352
4431.183176
4418.823279
4440.048928
4395.342831
4429.931319
4327.448741
4427.690605
4488.540799
4435.648881
4426.809492
4428.101606
4427.628759
4427.694604
4427.167606
4427.082193
4427.195571
4425.927132
4427.046912
4426.726909
4427.036933
4427.280838
4426.305229
4425.040863
4424.932910
4432.576456
4440.692549
4439.870222
4430.720645
4429.783498
4428.546578
4437.694408
4492.947101
4397.839313
4431.717663
4438.605877
4442.236770
4451.870520
4467.209226
4409.881053
4388.032265
4427.011564
4428.025159
4428.005907
4427.307632
4427.906724
4427.148540
4427.287097
4427.231778
4426.844850
4425.719215
4426.626579
4424.425474
4425.790137
4424.703358
4423.089802
4449.238840
4447.559994
4446.086055
4442.771047
4414.671647
4421.701860
4430.326032
4409.905903
4490.551303
4420.119928
4424.302770
4373.884884
4427.143614
4391.020779
4390.611067
4462.722119
4427.097224
4427.955936
4428.130135
4427.059923
4427.742680
4426.504989
4427.507424
4426.301680
4427.048543
4427.510263
4426.848018
4427.286722
4425.837276
4425.300375
4427.142456
4431.232062
4402.203654
4433.467322
4408.222156
4390.529052
4456.246883
4424.496601
4446.734655
4391.213037
4393.155191
4426.081242
4425.884061
4439.901243
4402.115910
4473.241900
4472.398758
4427.331565
4428.373960
4427.636806
4428.184454
4427.295411
4427.990839
4427.583615
4427.467418
4427.666509
4425.431660
4426.353144
4424.540233
4425.890278
4424.095088
4426.726885
4445.239807
4417.682799
4428.681138
4438.487212
4431.401642
4421.483590
4463.882920
4436.828127
4408.665555
4441.788403
4439.600232
4446.683324
4411.734236
4427.302844
4429.620181
4452.376649
4427.183505
4428.172304
4428.261109
4427.204343
4428.165853
4427.225096
4427.471167
4427.122826
4426.488533
4427.163503
4426.941544
4426.359696
4426.436596
4425.560825
4424.599469
4420.302532
4432.138658
4425.452017
4435.084303
4444.183988
4374.245375
4473.508434
4498.586885
4427.141376
4450.317890
4396.606964
4407.658538
4427.285882
4422.707252
4410.263845
4416.388006
4427.683081
4428.202870
4428.356563
4427.893127
4428.427557
4427.507687
4428.464946
4426.895750
4428.038977
4425.886846
4426.269627
4425.751673
4425.441130
4425.436177
4425.656147
4407.150098
4413.717058
4451.131097
4405.568035
4369.718373
4431.222464
4766.937939
4474.848641
4439.278194
4439.644972
4437.323174
4419.946387
4449.830174
4409.534259
4458.705614
4420.434207
4427.766691
4428.539202
4428.193374
4428.406857
4427.680484
4428.306321
4427.597529
4427.885194
4427.409250
4427.597130
4428.021073
4427.127743
4427.312254
4425.642708
4426.012113
4419.122037
4428.723182
4410.349991
4473.699686
4391.354714
4426.420698
4502.446880
4452.546623
4482.410724
4468.531176
4483.055796
4427.320156
4439.764142
4441.702680
4391.961595
4427.786402
4427.929957
4428.441029
4428.626336
4427.662407
4428.832212
4427.541232
4428.300293
4427.471079
4427.311223
4426.045793
4426.346402
4424.384105
4426.933726
4425.202245
4425.393391
4454.433246
4441.960990
4449.782777
4405.420677
4364.010280
4400.573265
4482.833440
4471.573416
4477.152317
4414.006098
4387.170634
4425.065941
4473.456104
4449.422001
4452.359884
4428.563419
4428.249205
4428.155063
4428.972871
4427.697772
4428.333435
4426.694256
4428.205054
4425.627689
4427.112520
4426.396004
4427.242996
4428.000076
4426.447044
4424.585722
4428.205707
4441.092085
4397.972930
4444.237906
4440.751420
4365.687806
4430.210422
4489.248250
4461.879487
4426.531469
4418.990977
4433.364034
4412.431588
4408.922062
4420.914084
4457.637096
4427.088217
4428.411880
4428.718720
4428.545604
4428.095269
4427.907870
4428.043966
4427.807925
4428.049639
4428.136397
4427.429295
4427.923373
4425.131540
4426.981107
4424.130954
4425.147457
4440.641710
4436.069388
4424.630801
4405.548951
4403.447659
4446.983826
4894.548935
4462.439919
4441.469423
4465.370048
4437.285732
4374.563248
4417.824309
4420.750721
4356.233134
4423.671759
4428.544045
4428.485722
4428.942371
4427.704767
4429.065070
4427.740021
4429.120211
4427.959249
4428.885103
4428.383932
4428.689667
4426.682791
4426.129032
4426.232967
4422.601481
4442.843235
4451.490995
4447.781413
4429.920818
4455.834858
4456.268259
4454.161928
4448.017482
4431.879440
4460.088748
4467.390356
4400.879739
4449.621010
4428.082540
4512.426546
4423.529771
4428.603779
4428.629015
4429.212115
4428.514161
4429.023662
4428.341255
4429.070234
4427.694189
4429.070658
4426.127510
4425.857461
4424.786853
4425.843406
4423.728067
4427.503254
4431.531401
4443.350324
4444.000802
4429.831425
4445.567753
4562.533230
4460.304458
4502.684917
4458.894923
4443.730593
4472.273887
4458.660563
4438.559924
4411.779241
4381.654305
4440.263279
4429.103956
4429.294914
4428.765611
4429.156871
4428.392177
4428.990082
4427.639158
4428.438250
4427.025340
4427.237715
4426.285140
4424.342045
4426.173917
4424.799741
4426.803419
4425.671532
4413.804657
4441.138534
4462.016709
4444.662401
4371.692990
4526.651212
4534.858972
4446.121903
4429.778959
4425.539937
4462.883156
4421.391970
4399.724350
4390.563648
4403.867253