# vtk DataFile Version 2.0
mfree iwf
ASCII

DATASET UNSTRUCTURED_GRID
POINTS 10887 float
0.000000 0.000445 0.000000
0.000000 0.000450 0.000000
0.000000 0.000455 0.000000
0.000000 0.000460 0.000000
0.000000 0.000465 0.000000
0.000000 0.000470 0.000000
0.000000 0.000475 0.000000
-0.000000 0.000480 0.000000
0.000000 0.000485 0.000000
0.000000 0.000490 0.000000
-0.000000 0.000496 0.000000
0.000002 0.000500 0.000000
0.000844 0.000919 0.000000
0.000853 0.000920 0.000000
0.000900 0.000915 0.000000
0.000905 0.000913 0.000000
0.000905 0.000913 0.000000
0.000912 0.000912 0.000000
0.000919 0.000911 0.000000
0.000915 0.000912 0.000000
0.000929 0.000909 0.000000
0.000956 0.000903 0.000000
0.000961 0.000899 0.000000
0.000965 0.000897 0.000000
0.000969 0.000894 0.000000
0.000973 0.000891 0.000000
0.000977 0.000889 0.000000
0.000982 0.000885 0.000000
0.000985 0.000883 0.000000
0.000990 0.000879 0.000000
0.000995 0.000876 0.000000
0.001017 0.000867 0.000000
0.000005 0.000445 0.000000
0.000005 0.000450 0.000000
0.000005 0.000455 0.000000
0.000005 0.000460 0.000000
0.000005 0.000465 0.000000
0.000005 0.000470 0.000000
0.000005 0.000475 0.000000
0.000005 0.000480 0.000000
0.000005 0.000485 0.000000
0.000006 0.000490 0.000000
0.000003 0.000496 0.000000
0.000006 0.000499 0.000000
0.000895 0.000915 0.000000
0.000902 0.000907 0.000000
0.000936 0.000906 0.000000
0.000942 0.000904 0.000000
0.000947 0.000903 0.000000
0.000951 0.000901 0.000000
0.000953 0.000900 0.000000
0.000957 0.000896 0.000000
0.000959 0.000894 0.000000
0.000966 0.000891 0.000000
0.000971 0.000887 0.000000
0.000977 0.000883 0.000000
0.000981 0.000879 0.000000
0.000990 0.000875 0.000000
0.000992 0.000872 0.000000
0.000998 0.000869 0.000000
0.001008 0.000867 0.000000
0.001011 0.000866 0.000000
0.001006 0.000869 0.000000
0.001015 0.000865 0.000000
0.000010 0.000445 0.000000
0.000010 0.000450 0.000000
0.000010 0.000455 0.000000
0.000010 0.000460 0.000000
0.000010 0.000465 0.000000
0.000010 0.000469 0.000000
0.000010 0.000475 0.000000
0.000010 0.000479 0.000000
0.000009 0.000487 0.000000
0.000012 0.000489 0.000000
0.000009 0.000497 0.000000
0.000011 0.000498 0.000000
0.000895 0.000911 0.000000
0.000905 0.000905 0.000000
0.000921 0.000906 0.000000
0.000929 0.000905 0.000000
0.000933 0.000904 0.000000
0.000939 0.000903 0.000000
0.000930 0.000899 0.000000
0.000940 0.000897 0.000000
0.000945 0.000896 0.000000
0.000951 0.000895 0.000000
0.000961 0.000890 0.000000
0.000965 0.000887 0.000000
0.000966 0.000883 0.000000
0.000970 0.000880 0.000000
0.000976 0.000879 0.000000
0.000986 0.000875 0.000000
0.001001 0.000868 0.000000
0.001003 0.000867 0.000000
0.001009 0.000862 0.000000
0.001011 0.000857 0.000000
0.000015 0.000445 0.000000
0.000016 0.000450 0.000000
0.000014 0.000456 0.000000
0.000017 0.000460 0.000000
0.000014 0.000469 0.000000
0.000016 0.000465 0.000000
0.000014 0.000476 0.000000
0.000016 0.000480 0.000000
0.000014 0.000484 0.000000
0.000016 0.000489 0.000000
0.000014 0.000495 0.000000
0.000016 0.000497 0.000000
0.000025 0.000500 0.000000
0.000908 0.000906 0.000000
0.000923 0.000905 0.000000
0.000920 0.000900 0.000000
0.000935 0.000898 0.000000
0.000943 0.000902 0.000000
0.000948 0.000892 0.000000
0.000953 0.000890 0.000000
0.000949 0.000886 0.000000
0.000957 0.000887 0.000000
0.000969 0.000875 0.000000
0.000972 0.000884 0.000000
0.000978 0.000873 0.000000
0.000983 0.000874 0.000000
0.000983 0.000869 0.000000
0.000988 0.000869 0.000000
0.000993 0.000865 0.000000
0.000998 0.000863 0.000000
0.001002 0.000860 0.000000
0.001010 0.000854 0.000000
0.000020 0.000445 0.000000
0.000021 0.000450 0.000000
0.000019 0.000455 0.000000
0.000022 0.000459 0.000000
0.000019 0.000469 0.000000
0.000025 0.000467 0.000000
0.000018 0.000475 0.000000
0.000022 0.000479 0.000000
0.000019 0.000486 0.000000
0.000021 0.000490 0.000000
0.000021 0.000497 0.000000
0.000022 0.000499 0.000000
0.000039 0.000500 0.000000
0.000907 0.000894 0.000000
0.000913 0.000901 0.000000
0.000921 0.000896 0.000000
0.000927 0.000901 0.000000
0.000937 0.000892 0.000000
0.000939 0.000888 0.000000
0.000954 0.000885 0.000000
0.000945 0.000887 0.000000
0.000956 0.000878 0.000000
0.000959 0.000871 0.000000
0.000963 0.000868 0.000000
0.000969 0.000869 0.000000
0.000979 0.000867 0.000000
0.000986 0.000859 0.000000
0.000991 0.000861 0.000000
0.000995 0.000858 0.000000
0.001003 0.000855 0.000000
0.001006 0.000858 0.000000
0.001008 0.000850 0.000000
0.000024 0.000445 0.000000
0.000026 0.000450 0.000000
0.000024 0.000455 0.000000
0.000026 0.000461 0.000000
0.000021 0.000465 0.000000
0.000024 0.000472 0.000000
0.000023 0.000476 0.000000
0.000026 0.000481 0.000000
0.000023 0.000485 0.000000
0.000026 0.000488 0.000000
0.000026 0.000493 0.000000
0.000027 0.000500 0.000000
0.000874 0.000919 0.000000
0.000912 0.000904 0.000000
0.000916 0.000904 0.000000
0.000932 0.000894 0.000000
0.000927 0.000890 0.000000
0.000943 0.000892 0.000000
0.000944 0.000882 0.000000
0.000935 0.000887 0.000000
0.000945 0.000878 0.000000
0.000959 0.000882 0.000000
0.000962 0.000877 0.000000
0.000962 0.000880 0.000000
0.000973 0.000875 0.000000
0.000975 0.000869 0.000000
0.000988 0.000864 0.000000
0.000983 0.000864 0.000000
0.000998 0.000856 0.000000
0.000991 0.000855 0.000000
0.001001 0.000851 0.000000
0.001005 0.000846 0.000000
0.000030 0.000445 0.000000
0.000031 0.000450 0.000000
0.000029 0.000456 0.000000
0.000031 0.000460 0.000000
0.000031 0.000464 0.000000
0.000028 0.000469 0.000000
0.000032 0.000472 0.000000
0.000030 0.000477 0.000000
0.000030 0.000486 0.000000
0.000031 0.000492 0.000000
0.000033 0.000497 0.000000
0.000030 0.000499 0.000000
0.000048 0.000500 0.000000
0.000901 0.000901 0.000000
0.000917 0.000892 0.000000
0.000926 0.000894 0.000000
0.000922 0.000890 0.000000
0.000931 0.000889 0.000000
0.000940 0.000879 0.000000
0.000952 0.000877 0.000000
0.000950 0.000881 0.000000
0.000955 0.000873 0.000000
0.000965 0.000873 0.000000
0.000971 0.000861 0.000000
0.000972 0.000865 0.000000
0.000976 0.000862 0.000000
0.000981 0.000855 0.000000
0.000980 0.000860 0.000000
0.000989 0.000851 0.000000
0.000995 0.000851 0.000000
0.001000 0.000848 0.000000
0.001003 0.000842 0.000000
0.000035 0.000445 0.000000
0.000035 0.000450 0.000000
0.000034 0.000455 0.000000
0.000038 0.000455 0.000000
0.000034 0.000467 0.000000
0.000037 0.000472 0.000000
0.000032 0.000479 0.000000
0.000042 0.000479 0.000000
0.000035 0.000483 0.000000
0.000034 0.000488 0.000000
0.000037 0.000491 0.000000
0.000036 0.000498 0.000000
0.000832 0.000916 0.000000
0.000870 0.000919 0.000000
0.000911 0.000895 0.000000
0.000918 0.000887 0.000000
0.000932 0.000882 0.000000
0.000925 0.000879 0.000000
0.000938 0.000883 0.000000
0.000939 0.000875 0.000000
0.000949 0.000873 0.000000
0.000946 0.000868 0.000000
0.000953 0.000862 0.000000
0.000963 0.000860 0.000000
0.000967 0.000863 0.000000
0.000971 0.000855 0.000000
0.000986 0.000853 0.000000
0.000980 0.000842 0.000000
0.000991 0.000846 0.000000
0.000994 0.000846 0.000000
0.000997 0.000843 0.000000
0.001000 0.000838 0.000000
0.000040 0.000445 0.000000
0.000041 0.000450 0.000000
0.000037 0.000462 0.000000
0.000040 0.000458 0.000000
0.000041 0.000463 0.000000
0.000040 0.000468 0.000000
0.000041 0.000473 0.000000
0.000037 0.000477 0.000000
0.000041 0.000488 0.000000
0.000042 0.000491 0.000000
0.000041 0.000497 0.000000
0.000044 0.000498 0.000000
0.000698 0.000835 0.000000
0.000897 0.000907 0.000000
0.000902 0.000897 0.000000
0.000914 0.000882 0.000000
0.000928 0.000884 0.000000
0.000934 0.000877 0.000000
0.000929 0.000879 0.000000
0.000944 0.000873 0.000000
0.000953 0.000869 0.000000
0.000957 0.000866 0.000000
0.000950 0.000865 0.000000
0.000959 0.000857 0.000000
0.000967 0.000857 0.000000
0.000974 0.000850 0.000000
0.000976 0.000857 0.000000
0.000979 0.000852 0.000000
0.000983 0.000848 0.000000
0.000988 0.000842 0.000000
0.000994 0.000839 0.000000
0.000997 0.000834 0.000000
0.000044 0.000445 0.000000
0.000047 0.000450 0.000000
0.000044 0.000454 0.000000
0.000047 0.000461 0.000000
0.000044 0.000467 0.000000
0.000046 0.000473 0.000000
0.000046 0.000479 0.000000
0.000039 0.000483 0.000000
0.000052 0.000486 0.000000
0.000045 0.000483 0.000000
0.000048 0.000493 0.000000
0.000050 0.000498 0.000000
0.000702 0.000841 0.000000
0.000891 0.000915 0.000000
0.000916 0.000896 0.000000
0.000923 0.000884 0.000000
0.000920 0.000881 0.000000
0.000934 0.000873 0.000000
0.000937 0.000868 0.000000
0.000942 0.000869 0.000000
0.000946 0.000862 0.000000
0.000955 0.000859 0.000000
0.000962 0.000865 0.000000
0.000969 0.000851 0.000000
0.000960 0.000853 0.000000
0.000968 0.000847 0.000000
0.000977 0.000847 0.000000
0.000984 0.000844 0.000000
0.000982 0.000838 0.000000
0.000988 0.000838 0.000000
0.000992 0.000835 0.000000
0.000994 0.000830 0.000000
0.000049 0.000445 0.000000
0.000052 0.000450 0.000000
0.000048 0.000456 0.000000
0.000054 0.000458 0.000000
0.000047 0.000464 0.000000
0.000050 0.000472 0.000000
0.000052 0.000467 0.000000
0.000051 0.000477 0.000000
0.000047 0.000488 0.000000
0.000052 0.000491 0.000000
0.000057 0.000492 0.000000
0.000053 0.000498 0.000000
0.000777 0.000897 0.000000
0.000883 0.000910 0.000000
0.000896 0.000902 0.000000
0.000913 0.000885 0.000000
0.000922 0.000875 0.000000
0.000928 0.000873 0.000000
0.000927 0.000869 0.000000
0.000932 0.000869 0.000000
0.000942 0.000857 0.000000
0.000941 0.000864 0.000000
0.000945 0.000857 0.000000
0.000955 0.000853 0.000000
0.000962 0.000848 0.000000
0.000964 0.000853 0.000000
0.000971 0.000844 0.000000
0.000974 0.000838 0.000000
0.000975 0.000841 0.000000
0.000985 0.000834 0.000000
0.000989 0.000830 0.000000
0.000992 0.000826 0.000000
0.000054 0.000445 0.000000
0.000057 0.000450 0.000000
0.000053 0.000455 0.000000
0.000053 0.000463 0.000000
0.000059 0.000466 0.000000
0.000053 0.000473 0.000000
0.000058 0.000476 0.000000
0.000056 0.000480 0.000000
0.000052 0.000483 0.000000
0.000057 0.000486 0.000000
0.000056 0.000497 0.000000
0.000059 0.000496 0.000000
0.000799 0.000905 0.000000
0.000890 0.000916 0.000000
0.000888 0.000909 0.000000
[...]
POINT_DATA 10887
SCALARS density float 1
LOOKUP_TABLE default
4428.010548
4432.307895
4429.436840
4429.295869
4431.358334
4425.415123
4435.506090
4432.243383
4429.291437
4415.422287
4429.926263
4402.697025
4425.197176
4423.538496
4418.465506
4437.539239
4439.484043
4433.181769
4448.766371
4445.357741
4423.590116
4425.595074
4397.919506
4436.209771
4431.573588
4407.803661
4438.294015
4439.202777
4411.075928
4446.485966
4421.853253
4407.733872
4430.400282
4427.300982
4426.107044
4425.678720
4438.096993
4419.837710
4423.392857
4424.223595
4424.098788
4420.372057
4457.544675
4408.563693
4419.503095
4410.156681
4415.160163
4415.025105
4417.919801
4418.761608
4449.552058
4453.483325
4434.519557
4419.696393
4431.255359
4390.126455
4437.695141
4399.676373
4431.232531
4466.532982
4419.112329
4433.647420
4403.031738
4403.583856
4421.937830
4429.576177
4436.326884
4423.844585
4424.891710
4427.097055
4454.631854
4393.873675
4464.054960
4407.356512
4443.624067
4399.787597
4450.558340
4460.332988
4445.517252
4401.576511
4423.329104
4407.369244
4466.447061
4427.504295
4415.124397
4395.607989
4422.581379
4440.133944
4385.212162
4421.065566
4439.137568
4409.665900
4423.595084
4434.295170
4456.473870
4415.007987
4423.191472
4433.898003
4435.748857
4423.724609
4411.839972
4437.736145
4454.680098
4385.115924
4469.920782
4373.764259
4500.843856
4410.994671
4433.613684
4390.469211
4418.498948
4436.548391
4471.299030
4450.986701
4440.718819
4397.464724
4425.386410
4438.826894
4431.563123
4463.818483
4405.473329
4459.897247
4426.269895
4464.030247
4436.498082
4351.306905
4500.629801
4452.121654
4435.344982
4428.604855
4442.133300
4429.493423
4424.763045
4450.640418
4430.468565
4448.761616
4466.521967
4376.307972
4466.279793
4433.481318
4418.543732
4443.473342
4452.356526
4418.528158
4464.095548
4428.486976
4442.407174
4441.597578
4452.554450
4391.779100
4411.007307
4431.750089
4408.930110
4421.215818
4409.636326
4454.461470
4460.218050
4393.430154
4369.257112
4420.413814
4431.395277
4429.622010
4434.816803
4412.155736
4437.262747
4418.804723
4465.124901
4362.345417
4434.054787
4468.996253
4422.186810
4422.275494
4432.044541
4437.042650
4380.675650
4390.776019
4468.379006
4415.163842
4402.762617
4418.001604
4469.254600
4431.450174
4450.744966
4460.075081
4449.618474
4454.066421
4399.412297
4422.369539
4441.836808
4426.269289
4460.809640
4412.250597
4426.894990
4428.696932
4428.538966
4443.726912
4438.671472
4431.713528
4395.629353
4450.642965
4439.970700
4404.280460
4455.816982
4417.225053
4424.600924
4440.004001
4457.017605
4405.364830
4413.940142
4465.332050
4451.515559
4452.720322
4421.815094
4458.774894
4434.319730
4453.323910
4438.597381
4400.953188
4414.416910
4460.262113
4429.680976
4375.844309
4439.819252
4436.091719
4431.613647
4417.013736
4431.150475
4440.638114
4434.047023
4437.112130
4454.372162
4436.305917
4418.846144
4433.703306
4413.690354
4447.044635
4418.848367
4422.920925
4399.703390
4411.937647
4447.898598
4455.329209
4409.637702
4415.232721
4419.606722
4447.437027
4432.223979
4407.251438
4416.018431
4455.741051
4443.989297
4462.430546
4455.487199
4453.723223
4400.516954
4416.869475
4430.018998
4435.667804
4407.972082
4445.020656
4428.968187
4432.609284
4441.643106
4412.208588
4449.826547
4430.661048
4430.216424
4420.526035
4427.642200
4454.321954
4399.151653
4436.980116
4398.584312
4441.386639
4437.044207
4422.869638
4424.071665
4419.134372
4449.540912
4431.208482
4437.168319
4417.253871
4394.824805
4455.293676
4403.543309
4395.311130
4429.164472
4432.702025
4436.241417
4419.621466
4415.470227
4422.685515
4401.520051
4420.684417
4447.569835
4416.871507
4443.405502
4423.267508
4466.924640
4434.747812
4435.767553
4431.874612
4409.842697
4448.416580
4414.760473
4421.489526
4431.153625
4448.470703
4411.018012
4429.704864
4450.977532
4402.308331
4439.171974
4456.995562
4436.650399
4438.063980
4440.278729
4422.672622
4442.720996
4425.553506
4428.566173
4428.209812
4421.303267
4440.970874
4448.461193
4464.914364
4416.279027
4373.609121
4384.903459
4422.281624
4522.388408
4405.765437
4433.566788
4442.046533
4390.494138
4449.241078
4436.281904
4394.875262
4443.621226
4452.966837
4438.674867
4425.404483
4453.595829
4432.450630
4390.865180
4456.552524
4437.468496
4444.255086
4400.977711
4428.944070
4418.185108
4428.053041
4435.077451
4431.147781
4441.683550
4400.453458
4450.023356
4460.060293
4417.491959
4464.509670
4478.198276
4362.368360
4405.667389
4395.893056
4429.904060
4427.551008
4429.314011
4402.200137
4459.927122
4438.787026
4399.032641
4435.211295
4415.346836
4410.065480
4435.844305
4430.935682
4430.999552
4436.947950
4466.398358
4404.551523
4428.089507
4444.439759
4429.871069
4420.950110
4422.427367
4426.957637
4416.564413
4383.201599
4433.680787
4432.733234
4407.550084
4435.033300
4437.132397
4431.618874
4437.665264
4430.242580
4409.986098
4429.140858
4413.339413
4380.836872
4384.340865
4441.166201
4424.218883
4432.793661
4445.237710
4448.047513
4441.455006
4441.613716
4418.698978
4442.868540
4400.253683
4424.537733
4438.652179
4422.682808
4440.350319
4432.170562
4441.822873
4412.802175
4437.907870
4424.473733
4450.265628
4458.594205
4434.909687
4379.392799
4457.113948
4381.844280
4471.143372
4419.898359
4413.266931
4430.508185
4389.877765
4399.016414
4431.856010
4387.405661
4441.900183
4412.016048
4412.450982
4430.026867
4443.466202
4428.615134
4402.455578
4453.773311
4434.649643
4418.752514
4437.640335
4442.034974
4414.046202
4434.646131
4430.834428
4428.228449
4399.288095
4454.236640
4433.608621
4421.602802
4426.792275
4443.354309
4406.711508
4404.372476
4434.230481
4452.053636
4425.533396
4432.441237
4437.494222
4473.553064
4450.096653
4450.743056
4443.024615
4454.793515
4380.065656
4426.602503
4404.720587
4412.705672
4459.022381
4429.874023
4435.592626
4423.547052
4423.866902
4411.366794
4439.149110
4432.530553
4436.863490
4421.043843
4469.395946
4399.565911
4426.452129
4400.747885
4454.885292
4455.068534
4467.794326
4358.744927
4396.190195
4451.351548
4431.614093
4418.611380
4427.954950
4446.823009
4447.351741
4435.900451
4401.248798
4446.437103
4405.046252
4401.116066
4437.874739
4444.592855
4411.246814
4409.168068
4403.524683
4410.516145
4432.255797
4424.396974
4433.552941
4421.703107
4416.550336
4431.495607
4453.987173
4435.844965
4413.713071
4462.759467
4383.926858
4450.033344
4444.657058
4481.957872
4410.447396
4428.823158
4425.975948
4422.155489
4435.792825
4433.513960
4471.965131
4439.087619
4425.073042
4447.671325
4434.086031
4444.122058
4456.987430
4432.416418
4414.964662
4409.464497
4426.072153
4439.344619
4422.910843
4452.654900
4425.148226
4443.461544
4438.700209
4432.277728
4416.024996
4420.654070
4410.053952
4463.947435
4447.359102
4419.550851
4426.413922
4380.184385
4441.050248
4461.296807
4431.829522
4432.422479
4442.436287
4440.949001
4465.250746
4422.713498
4481.822054
4463.166756
4412.437964
4448.154306
4409.490946
4453.320747
4443.287848
4431.131494
4422.264994
4419.236667
4442.914575
4427.708528
4421.369923
4427.231923
4418.415069
4435.666946
4420.369142
4447.524063
4403.141701
4432.538211
4451.958302
4425.141549
4445.343148
4421.264186
4399.588504
4428.544582
4413.990859
4422.668494
4426.939697
4435.778654
4428.607814
4430.234187
4446.321616
4426.853796
4429.762329
4451.032303
4422.038642
4415.293360
4426.621705
4452.078853
4436.828369
4444.366285
4421.072318
4430.484234
4429.123342
4432.237982
4440.864625
4420.033461
4440.858034
4454.826688
4416.046517
4416.552455
4424.948499
4433.638317
4433.017030
4432.409789
4425.701548
4430.471605
4425.093851
4440.648343
4441.741418
4456.219997
4446.228349
4442.836763
4406.304070
4426.179179
4481.436383
4414.644251
4421.863915
4440.676120
4385.639968
4432.680797
4416.919913
4424.266206
4413.366861
4443.991026
4427.541556
4436.488201
4419.883363
4444.320996
4438.391377
4415.383478
4413.371245
4446.553491
4443.162603
4411.754718
4460.797228
4488.093501
4395.757923
4510.024447
4430.514852
4419.701102
4434.418319
4475.379076
4440.281148
4433.911926
4368.603875
4436.522983
4416.602190
4450.000193
4467.687330
4479.256599
4436.391679
4447.474183
4418.848369
4463.647353
4444.946259
4421.664638
4412.221153
4429.234807
4420.205092
4417.124145
4411.830251
4435.534137
4429.728640
4409.178959
4439.405271
4422.851293
4437.357868
4381.107779
4436.233981
4434.425555
4425.182236
4427.492799
4429.071680
4443.807712
4452.517088
4417.433030
4426.019217
4438.508370
4411.676400
4356.876388
4451.589531
4409.342762
4435.643960
4408.657669
4440.746620
4395.543832
4439.909218
4419.629216
4443.053640
4436.430670
4436.507514
4396.833426
4443.797996
4441.363206
4438.836785
4443.336421
4449.316204
4402.402457
4434.181889
4384.712031
4372.890390
4472.524531
4426.015819
4431.607970
4395.262019
4448.604864
4448.082418
4428.407764
4443.295778
4443.893530
4447.837147
4386.579123
4359.372628
4445.821314
4358.393613
4392.615348
4447.602762
4437.991102
4446.289938
4406.047268
4421.878119
4417.008177
4434.357481
4421.867573
4464.114352
4448.098779
4420.973988
4425.743841
4407.326150
4434.037822
4459.907240
4453.854111
4430.484084
4430.933400
4428.731007
4439.490425
4406.026261
4386.864951
4362.863496
4439.351529
4400.663432
4454.745113
4394.625492
4433.874499
4447.716003
4443.384690
4457.971825
4485.665040
4438.682890
4417.244177
4441.091470
4418.847416
4457.678423
4420.622262
4425.688889
4429.836778
4429.639738
4429.727803
4429.622015
4429.300826
4429.216478
4429.077660
4429.537433
4430.116530
4431.003591
4431.276960
4431.260522
4431.063687
4430.542907
4427.042190
4429.386071
4429.103997
4429.661672
4430.455245
4431.478897
4432.532406
4433.134226
4433.060139
4431.699151
4430.478176
4429.747120
4429.972563
4430.838518
4431.071105
4428.007197
4429.248112
4429.530676
4429.466639
4429.202687
4428.103377
4427.473362
4426.673401
4427.292860
4428.764424
4430.724071
4431.393468
4430.816367
4430.167818
4428.941227
4428.447938
4429.112678
4429.041570
4429.179156
4430.219169
4431.237145
4432.541112
4433.476434
4433.075337
4431.591786
4429.443307
4428.552370
4428.357685
4428.891450
4429.462324
4428.854544
4429.284302
4429.549885
4429.540919
4428.873274
4427.968869
4426.934363
4425.877448
4426.597963
4427.798756
4430.241933
4430.474388
4430.852282
4428.493404
4428.907630
4428.845717
4429.192072
4428.980331
4428.957639
4430.156264
4430.829414
4432.449244
4433.017261
4433.007424
4430.830282
4429.216395
4427.518423
4428.158696
4427.759722
4428.842551
4428.974220
4429.143412
4429.794201
4429.284597
4428.851274
4427.744725
4426.656057
4425.630994
4425.990229
4427.658123
4429.408064
4430.454554
4429.283451
4427.860254
4427.781877
4428.811234
4429.140123
4428.923290
4428.865752
4429.953359
4430.683204
4432.174001
4432.776049
4432.819259
4430.450713
4429.120982
4427.113619
4428.416407
4427.573851
4427.914931
4428.569815
4429.291465
4429.555599
4429.124226
4428.932880
4427.325549
4426.857527
4424.996427
4426.189991
4426.943697
4429.708552
4430.160624
4430.741683
4429.018645
4430.999404
4428.755392
4429.098078
4428.752045
4428.894857
4429.608347
4430.784281
4431.530923
4433.037461
4432.158811
4430.717005
4428.626177
4427.288174
4428.426862
4428.591904
4428.728302
4428.661481
4429.379355
4429.341965
4429.364572
4428.344162
4427.650302
4426.203740
4425.236480
4425.621877
4427.112395
4428.888094
4430.541267
4428.657242
4428.514459
4426.435106
4428.563952
4429.103683
4428.494371
4428.674538
4429.536714
4430.371096
4431.456336
4432.744474
4432.287714
4430.376752
4428.631249
4426.967256
4427.732821
4427.584846
4428.021612
4428.603824
4429.112225
4429.502693
4429.114308
4428.313216
4427.416385
4426.347168
4424.987842
4425.721416
4426.648828
4429.129100
4430.045621
4430.988669
4428.693670
4430.912981
4431.393059
4423.326822
4443.499363
4423.311168
4417.270039
4455.225396
4430.917207
4414.502405
4399.295159
4431.817451
4469.550353
4404.440982
4415.027322
4471.430384
4428.744684
4427.877722
4428.447910
4428.766943
4428.589112
4428.048600
4429.753884
4429.836900
4431.514502
4432.451590
4432.244528
4430.028508
4428.647929
4426.703112
4428.197900
4429.687157
4431.934749
4441.470996
4418.541286
4422.460474
4406.029841
4412.352242
4439.658639
4436.604647
4396.835480
4399.316693
4424.349303
4442.978645
4430.799328
4434.622669
4437.196108
4418.567953
4405.555980
4428.226000
4428.937870
4429.527848
4428.771401
4428.440475
4426.914884
4426.758928
4424.487567
4425.839737
4426.085628
4428.630940
4429.888075
4429.545843
4428.662826
4429.649998
4448.201315
4458.511726
4429.690222
4428.982677
4408.679537
4450.203062
4422.926124
4397.984080
4405.542107
4413.333151
4447.091010
4412.215829
4438.580879
4445.865207
4451.690946
4431.416715
4428.316200
4428.717271
4428.205508
4428.044694
4429.186960
4430.000619
4430.769799
4432.715324
4431.423190
4430.135079
4427.903135
4425.896352
4427.662385
4426.317276
4430.483028
4408.348260
4396.371734
4414.475821
4384.278212
4395.039613
4451.002214
4427.289005
4447.726950
4450.285228
4457.274291
4392.064530
4435.056568
4375.499653
4389.903404
4451.690244
4450.482436
4428.049626
4428.962260
4429.368036
4428.620397
4428.372297
4426.774997
4426.736973
4424.385149
4425.681318
4425.477304
4428.268672
4428.934081
4428.444864
4425.502756
4424.853215
4440.259219
4456.333769
4433.834469
4450.840476
4447.331627
4432.426352
4441.939938
4435.119499
4400.677497
4421.409291
4386.556963
4431.826633
4419.936133
4436.804276
4431.038985
4421.569458
4427.926075
4428.715016
4427.830694
4428.059275
4428.821927
4430.055680
4430.451423
4432.608974
4431.299363
4429.929946
4427.298433
4425.644655
4426.126611
4426.178382
4423.782798
4407.684230
4410.417711
4428.951904
4415.648121
4486.522005
4383.608948
4435.657459
4441.065720
4426.185280
4392.644473
4384.308226
4392.880953
4424.000009
4390.564304
4442.929623
4418.178126
4428.243841
4428.984520
4429.270010
4428.853195
4428.080996
4427.135856
4426.356173
4424.881161
4425.099998
4425.727038
4427.439155
4429.071329
4427.065210
4426.010059
4426.530882
4450.861306
4413.994233
4437.174492
4405.822868
4360.532785
4445.001503
4434.920561
4433.257013
4439.497769
4422.259970
4400.028658
4468.965338
4454.484586
4428.921657
4469.017105
4396.338927
4427.910890
4428.471852
4427.899521
4427.561512
4428.947465
4429.622017
4430.377959
4432.452015
4431.449058
4429.710986
4427.507703
4425.437357
4426.911826
4426.986213
4426.375418
4433.950930
4424.947499
4435.986978
4453.619154
4410.108037
4468.902652
4411.415345
4423.822672
4422.751737
4420.298557
4447.385744
4381.442446
4460.966768
4395.257384
4442.926993
4428.263257
4428.135457
4428.668356
4429.518268
4428.649679
4428.307960
4426.620499
4427.087726
4424.270233
4425.978569
4424.907818
4428.134587
4428.996433
4428.196988
4427.563988
4427.813120
4434.514327
4447.261849
4400.528309
4425.655337
4443.902558
4435.605648
4423.768138
4423.843774
4353.731504
4438.907436
4420.856743
4410.337852
4464.109723
4431.624147
4404.613380
4399.644185
4427.947213
4428.132437
4428.138645
4426.768246
4429.269693
4428.988899
4430.437135
4432.237516
4431.473004
4429.677771
4427.578682
4425.631412
4428.055230
4426.441269
4429.990000
4444.415424
4446.752470
4458.172135
4460.168423
4370.024021
4420.490157
4430.298179
4443.185745
4421.747622
4430.400922
4422.296203
4443.133789
4380.160787
4435.454351
4385.573032
4447.046501
4427.933240
4428.582904
4429.481114
4428.710705
4428.131212
4426.604488
4427.180219
4424.369130
4425.959387
4424.745309
4427.894787
4428.804319
4428.484806
4427.139336
4428.277025
4443.419169
4429.018802
4439.034536
4462.307932
4460.904560
4430.443954
4456.836033
4459.908465
4388.051278
4448.153591
4420.303563
4439.973230
4452.982259
4398.549807
4411.160615
4387.595287
4427.879182
4428.289754
4427.600360
4426.917792
4428.493473
4429.261633
4429.816455
4432.233115
4431.397594
4429.558103
4427.479632
4425.442672
4426.833133
4427.151417
4424.984942
4411.920758
4433.352366
4411.425574
4410.028034
4425.874810
4416.536479
4433.903675
4447.289581
4447.310066
4429.790109
4455.750043
4397.643483
4411.445152
4416.911409
4425.706879
4451.035496
4427.670480
4428.854920
4429.247001
4428.647802
4428.279126
4426.805769
4427.008143
4425.188062
4425.456726
4425.150189
4426.849357
4428.925451
4426.718470
4426.553797
4425.514730
4425.663674
4449.854589
4434.160384
4441.212328
4420.063343
4436.111454
4443.836262
4438.211644
4423.902925
4414.027259
4415.708927
4465.038694
4428.175969
4409.459429
4521.088793
4444.814050
4427.554563
4428.848275
4426.577998
4427.767518
4427.348738
4430.330146
4428.686492
4433.029898
4430.727576
4430.144343
4426.520258
4425.708121
4426.160132
4426.196692
4426.782727
4419.124076
4473.810801
4384.081287
4464.680892
4436.751023
4421.008391
4426.152457
4417.482077
4405.445169
4417.177160
4437.658215
4446.826391
4403.784578
4421.844031
4406.272401
4454.600014
4427.429429
4429.450249
4428.637763
4429.665415
4427.428566
4427.930973
4425.703820
4426.168867
4424.785460
4425.260904
4426.385786
4428.550224
4426.341088
4427.113284
4424.327195
4437.329378
4436.437493
4428.640020
4407.984548
4442.141013
4433.968779
4423.782235
4444.930409
4457.107865
4435.051022
4398.658896
4420.010546
4412.907113
4409.894635
4394.150920
4397.285816
4427.578401
4428.499095
4426.931272
4426.800641
4428.103261
4429.074727
4429.169858
4432.861986
4430.807992
4430.492971
4426.346161
4426.312745
4425.144449
4427.060931
4424.474364
4406.913964
4416.095958
4428.933971
4416.718299
4374.071884
4434.952186
4426.398421
4426.135694
4412.510203
4478.094303
4417.917629
4432.500241
4435.657198
4415.932718
4417.126126
4432.748923
4427.878925
4428.780348
4429.571098
4429.312258
4427.674795
4427.814387
4426.732888
4425.471038
4426.625559
4424.444753
4426.809078
4428.090739
4427.802514
4426.191635
4426.424208
4418.009983
4419.746537
4430.234456
4460.145713
4392.731385
4430.178798
4440.964447
4431.178837
4455.822408
4426.457313
4430.587897
4408.889697
4447.742671
4446.261584
4425.936267
4416.229150
4427.837566
4428.104826
4427.201080
4425.888365
4428.286304
4427.790301
4430.139308
4431.827283
4430.897412
4429.917338
4427.188828
4424.103511
4426.446027
4424.989080
4426.087157
4442.715540
4457.355448
4445.430186
4444.042601
4380.994114
4412.823170
4441.637817
4407.643215
4470.404446
4457.315888
4446.158815
4389.729787
4439.903067
4444.492849
4415.604669
4431.966251
4427.737730
4427.970124
4430.293374
4427.683157
4428.968352
4426.011355
4428.231907
4423.705520
4427.514147
4423.041472
4426.356951
4428.332938
4426.236782
4424.914123
4428.376336
4441.083263
4428.139393
4437.518835
4466.966494
4377.163337
4436.612553
4434.174659
4434.315882
4429.178308
4456.337644
4449.604367
4417.130152
4414.709584
4437.615497
4393.160410
4428.000447
4427.444453
4428.291536
4426.886958
4426.163560
4427.231541
4428.782383
4429.458116
4432.338937
4431.458898
4430.818863
4427.268189
4424.345250
4424.785164
4423.981856
4423.592148
4436.850329
4427.781533
4415.743646
4368.992543
4424.086577
4446.249851
4445.006402
4436.825867
4443.407749
4438.770533
4402.218706
4417.116758
4385.000531
4432.399174
4406.117467
4443.693237
4427.254215
4429.387369
4428.347543
4430.007951
4427.897080
4428.231349
4427.108542
4426.798384
4426.108867
4424.311024
4426.352972
4427.328990
4426.394297
4425.207566
4424.503333
4439.165634
4452.335040
4440.191866
4426.223963
4446.395606
4423.565325
4415.185821
4471.116229
4390.850235
4456.302853
4434.219596
4423.691175
4455.509020
4412.270230
4560.534009
4411.931727
4427.056233
4428.731359
4426.715292
4426.362890
4426.988644
4429.499893
4427.575251
4434.036883
4429.615147
4430.756717
4425.421753
4426.257608
4422.871021
4425.633705
4421.654754
4449.458712
4400.314330
4429.880398
4426.363293
4475.439070
4457.781024
4439.276506
4444.079348
4441.743516
4431.191531
4441.670300
4424.142510
4445.301524
4448.275758
4283.940317
4433.943453
4427.581690
4429.865831
4428.444641
4431.134993
4426.686273
4429.109769
4425.127044
4427.097428
4423.403875
4425.494628
4423.479789
4426.934490
4424.326894
4426.349334
4419.111625
4426.031433
4453.610768
4419.579340
4426.557147
4445.950355
4413.963007
4439.718637
4441.861497
4436.470753
4426.977386
4401.057644
4453.380141
4463.507875
4409.424232
4374.015767
4396.207846