# vtk DataFile Version 2.0
mfree iwf
ASCII

DATASET UNSTRUCTURED_GRID
POINTS 8391 float
0.000001 0.000446 0.000000
0.000001 0.000451 0.000000
0.000001 0.000456 0.000000
0.000001 0.000461 0.000000
0.000001 0.000466 0.000000
0.000001 0.000471 0.000000
0.000001 0.000476 0.000000
0.000001 0.000481 0.000000
0.000001 0.000486 0.000000
0.000002 0.000490 0.000000
0.000001 0.000496 0.000000
0.000003 0.000500 0.000000
0.000085 0.000534 0.000000
0.000085 0.000544 0.000000
0.000085 0.000551 0.000000
0.000085 0.000559 0.000000
0.000085 0.000559 0.000000
0.000085 0.000567 0.000000
0.000085 0.000570 0.000000
0.000085 0.000576 0.000000
0.000085 0.000581 0.000000
0.000085 0.000586 0.000000
0.000085 0.000591 0.000000
0.000085 0.000596 0.000000
0.000085 0.000600 0.000000
0.000085 0.000606 0.000000
0.000085 0.000610 0.000000
0.000085 0.000616 0.000000
0.000085 0.000620 0.000000
0.000086 0.000626 0.000000
0.000086 0.000634 0.000000
0.000088 0.000662 0.000000
0.000006 0.000446 0.000000
0.000006 0.000450 0.000000
0.000006 0.000455 0.000000
0.000006 0.000460 0.000000
0.000006 0.000466 0.000000
0.000006 0.000470 0.000000
0.000006 0.000476 0.000000
0.000006 0.000480 0.000000
0.000006 0.000486 0.000000
0.000007 0.000490 0.000000
0.000005 0.000496 0.000000
0.000007 0.000499 0.000000
0.000087 0.000549 0.000000
0.000090 0.000553 0.000000
0.000089 0.000561 0.000000
0.000089 0.000567 0.000000
0.000089 0.000574 0.000000
0.000089 0.000579 0.000000
0.000089 0.000585 0.000000
0.000089 0.000590 0.000000
0.000090 0.000597 0.000000
0.000089 0.000602 0.000000
0.000090 0.000609 0.000000
0.000090 0.000615 0.000000
0.000091 0.000622 0.000000
0.000090 0.000629 0.000000
0.000090 0.000633 0.000000
0.000090 0.000637 0.000000
0.000088 0.000647 0.000000
0.000087 0.000651 0.000000
0.000087 0.000648 0.000000
0.000087 0.000658 0.000000
0.000011 0.000446 0.000000
0.000011 0.000450 0.000000
0.000011 0.000456 0.000000
0.000012 0.000460 0.000000
0.000011 0.000466 0.000000
0.000012 0.000470 0.000000
0.000011 0.000476 0.000000
0.000012 0.000480 0.000000
0.000010 0.000486 0.000000
0.000013 0.000490 0.000000
0.000010 0.000497 0.000000
0.000012 0.000498 0.000000
0.000094 0.000541 0.000000
0.000096 0.000548 0.000000
0.000092 0.000554 0.000000
0.000094 0.000561 0.000000
0.000093 0.000567 0.000000
0.000093 0.000571 0.000000
0.000095 0.000574 0.000000
0.000094 0.000581 0.000000
0.000095 0.000586 0.000000
0.000093 0.000591 0.000000
0.000095 0.000597 0.000000
0.000093 0.000603 0.000000
0.000095 0.000607 0.000000
0.000097 0.000615 0.000000
0.000092 0.000618 0.000000
0.000093 0.000627 0.000000
0.000092 0.000641 0.000000
0.000091 0.000645 0.000000
0.000090 0.000654 0.000000
0.000092 0.000660 0.000000
0.000016 0.000446 0.000000
0.000017 0.000450 0.000000
0.000015 0.000456 0.000000
0.000017 0.000460 0.000000
0.000015 0.000466 0.000000
0.000017 0.000470 0.000000
0.000015 0.000476 0.000000
0.000017 0.000480 0.000000
0.000016 0.000486 0.000000
0.000018 0.000489 0.000000
0.000016 0.000496 0.000000
0.000018 0.000498 0.000000
0.000027 0.000500 0.000000
0.000096 0.000556 0.000000
0.000097 0.000561 0.000000
0.000100 0.000565 0.000000
0.000101 0.000574 0.000000
0.000095 0.000579 0.000000
0.000100 0.000585 0.000000
0.000097 0.000592 0.000000
0.000101 0.000596 0.000000
0.000096 0.000601 0.000000
0.000100 0.000609 0.000000
0.000094 0.000612 0.000000
0.000097 0.000621 0.000000
0.000097 0.000626 0.000000
0.000097 0.000631 0.000000
0.000095 0.000636 0.000000
0.000097 0.000639 0.000000
0.000096 0.000648 0.000000
0.000095 0.000653 0.000000
0.000096 0.000660 0.000000
0.000020 0.000445 0.000000
0.000022 0.000450 0.000000
0.000020 0.000456 0.000000
0.000022 0.000460 0.000000
0.000020 0.000466 0.000000
0.000022 0.000470 0.000000
0.000020 0.000476 0.000000
0.000022 0.000480 0.000000
0.000020 0.000486 0.000000
0.000022 0.000490 0.000000
0.000022 0.000498 0.000000
0.000023 0.000499 0.000000
0.000040 0.000500 0.000000
0.000103 0.000552 0.000000
0.000105 0.000559 0.000000
0.000103 0.000563 0.000000
0.000100 0.000570 0.000000
0.000104 0.000572 0.000000
0.000102 0.000581 0.000000
0.000103 0.000586 0.000000
0.000101 0.000591 0.000000
0.000102 0.000600 0.000000
0.000103 0.000604 0.000000
0.000103 0.000613 0.000000
0.000102 0.000617 0.000000
0.000103 0.000623 0.000000
0.000101 0.000628 0.000000
0.000102 0.000639 0.000000
0.000098 0.000644 0.000000
0.000101 0.000650 0.000000
0.000099 0.000653 0.000000
0.000100 0.000659 0.000000
0.000026 0.000445 0.000000
0.000027 0.000450 0.000000
0.000025 0.000456 0.000000
0.000027 0.000459 0.000000
0.000025 0.000465 0.000000
0.000027 0.000470 0.000000
0.000025 0.000476 0.000000
0.000027 0.000480 0.000000
0.000025 0.000485 0.000000
0.000027 0.000490 0.000000
0.000027 0.000493 0.000000
0.000028 0.000500 0.000000
0.000087 0.000545 0.000000
0.000098 0.000551 0.000000
0.000102 0.000556 0.000000
0.000106 0.000566 0.000000
0.000109 0.000570 0.000000
0.000104 0.000577 0.000000
0.000109 0.000581 0.000000
0.000107 0.000589 0.000000
0.000106 0.000595 0.000000
0.000108 0.000599 0.000000
0.000104 0.000607 0.000000
0.000108 0.000611 0.000000
0.000104 0.000620 0.000000
0.000106 0.000629 0.000000
0.000102 0.000633 0.000000
0.000106 0.000635 0.000000
0.000104 0.000643 0.000000
0.000104 0.000645 0.000000
0.000104 0.000654 0.000000
0.000104 0.000659 0.000000
0.000031 0.000445 0.000000
0.000031 0.000450 0.000000
0.000031 0.000455 0.000000
0.000031 0.000461 0.000000
0.000031 0.000466 0.000000
0.000032 0.000469 0.000000
0.000031 0.000475 0.000000
0.000032 0.000479 0.000000
0.000031 0.000486 0.000000
0.000032 0.000491 0.000000
0.000034 0.000498 0.000000
0.000032 0.000499 0.000000
0.000050 0.000500 0.000000
0.000103 0.000546 0.000000
0.000111 0.000559 0.000000
0.000111 0.000563 0.000000
0.000111 0.000575 0.000000
0.000112 0.000578 0.000000
0.000110 0.000585 0.000000
0.000110 0.000590 0.000000
0.000113 0.000595 0.000000
0.000109 0.000604 0.000000
0.000113 0.000607 0.000000
0.000109 0.000616 0.000000
0.000112 0.000622 0.000000
0.000108 0.000624 0.000000
0.000110 0.000629 0.000000
0.000108 0.000639 0.000000
0.000111 0.000645 0.000000
0.000108 0.000649 0.000000
0.000109 0.000654 0.000000
0.000109 0.000659 0.000000
0.000036 0.000445 0.000000
0.000036 0.000450 0.000000
0.000038 0.000454 0.000000
0.000036 0.000459 0.000000
0.000037 0.000465 0.000000
0.000037 0.000471 0.000000
0.000035 0.000476 0.000000
0.000039 0.000481 0.000000
0.000035 0.000485 0.000000
0.000037 0.000489 0.000000
0.000039 0.000492 0.000000
0.000037 0.000499 0.000000
0.000085 0.000526 0.000000
0.000088 0.000543 0.000000
0.000111 0.000556 0.000000
0.000114 0.000566 0.000000
0.000113 0.000570 0.000000
0.000118 0.000576 0.000000
0.000115 0.000585 0.000000
0.000116 0.000589 0.000000
0.000112 0.000600 0.000000
0.000116 0.000600 0.000000
0.000111 0.000612 0.000000
0.000115 0.000613 0.000000
0.000113 0.000619 0.000000
0.000114 0.000629 0.000000
0.000112 0.000634 0.000000
0.000115 0.000639 0.000000
0.000112 0.000641 0.000000
0.000114 0.000648 0.000000
0.000114 0.000654 0.000000
0.000114 0.000659 0.000000
0.000041 0.000445 0.000000
0.000041 0.000450 0.000000
0.000038 0.000459 0.000000
0.000043 0.000458 0.000000
0.000041 0.000466 0.000000
0.000041 0.000470 0.000000
0.000043 0.000475 0.000000
0.000040 0.000477 0.000000
0.000042 0.000486 0.000000
0.000043 0.000491 0.000000
0.000043 0.000497 0.000000
0.000046 0.000498 0.000000
0.000085 0.000508 0.000000
0.000094 0.000545 0.000000
0.000115 0.000554 0.000000
0.000122 0.000563 0.000000
0.000117 0.000571 0.000000
0.000117 0.000581 0.000000
0.000120 0.000584 0.000000
0.000117 0.000593 0.000000
0.000120 0.000595 0.000000
0.000117 0.000604 0.000000
0.000119 0.000608 0.000000
0.000119 0.000615 0.000000
0.000117 0.000622 0.000000
0.000119 0.000626 0.000000
0.000118 0.000631 0.000000
0.000118 0.000636 0.000000
0.000118 0.000644 0.000000
0.000119 0.000648 0.000000
0.000118 0.000654 0.000000
0.000119 0.000659 0.000000
0.000045 0.000445 0.000000
0.000047 0.000450 0.000000
0.000046 0.000455 0.000000
0.000047 0.000461 0.000000
0.000045 0.000465 0.000000
0.000048 0.000469 0.000000
0.000047 0.000477 0.000000
0.000044 0.000481 0.000000
0.000050 0.000483 0.000000
0.000046 0.000487 0.000000
0.000049 0.000493 0.000000
0.000052 0.000498 0.000000
0.000085 0.000517 0.000000
0.000091 0.000534 0.000000
0.000107 0.000553 0.000000
0.000121 0.000567 0.000000
0.000122 0.000572 0.000000
0.000123 0.000579 0.000000
0.000122 0.000587 0.000000
0.000124 0.000594 0.000000
0.000122 0.000601 0.000000
0.000125 0.000606 0.000000
0.000121 0.000611 0.000000
0.000122 0.000620 0.000000
0.000123 0.000618 0.000000
0.000123 0.000629 0.000000
0.000123 0.000634 0.000000
0.000123 0.000639 0.000000
0.000123 0.000644 0.000000
0.000123 0.000649 0.000000
0.000123 0.000654 0.000000
0.000124 0.000659 0.000000
0.000050 0.000445 0.000000
0.000052 0.000450 0.000000
0.000049 0.000456 0.000000
0.000053 0.000459 0.000000
0.000050 0.000465 0.000000
0.000053 0.000471 0.000000
0.000049 0.000474 0.000000
0.000052 0.000479 0.000000
0.000050 0.000488 0.000000
0.000053 0.000491 0.000000
0.000059 0.000493 0.000000
0.000054 0.000499 0.000000
0.000085 0.000523 0.000000
0.000090 0.000532 0.000000
0.000102 0.000543 0.000000
0.000117 0.000561 0.000000
0.000126 0.000570 0.000000
0.000126 0.000579 0.000000
0.000128 0.000584 0.000000
0.000126 0.000589 0.000000
0.000129 0.000597 0.000000
0.000125 0.000601 0.000000
0.000127 0.000610 0.000000
0.000128 0.000614 0.000000
0.000128 0.000623 0.000000
0.000126 0.000626 0.000000
0.000128 0.000632 0.000000
0.000128 0.000636 0.000000
0.000127 0.000642 0.000000
0.000128 0.000648 0.000000
0.000128 0.000654 0.000000
0.000129 0.000659 0.000000
0.000055 0.000445 0.000000
0.000057 0.000450 0.000000
0.000056 0.000455 0.000000
0.000057 0.000461 0.000000
0.000055 0.000465 0.000000
0.000058 0.000469 0.000000
0.000056 0.000475 0.000000
0.000059 0.000482 0.000000
0.000055 0.000483 0.000000
0.000058 0.000487 0.000000
0.000057 0.000497 0.000000
0.000061 0.000497 0.000000
0.000087 0.000528 0.000000
0.000092 0.000538 0.000000
0.000099 0.000541 0.000000
[...]
POINT_DATA 8391
SCALARS density float 1
LOOKUP_TABLE default
4421.889942
4426.590128
4424.209043
4422.735828
4427.244286
4427.424973
4435.983333
4431.410583
4441.520662
4424.267211
4434.687714
4397.122632
4636.031576
4462.781281
4543.570088
4505.309922
4497.900385
4512.601985
4499.699806
4489.677195
4499.295019
4455.154695
4464.977635
4449.654779
4425.653005
4446.975598
4438.293994
4429.463826
4436.593518
4421.810293
4451.448447
4413.096859
4429.826107
4427.600169
4426.419994
4426.781994
4432.175428
4418.898383
4421.193062
4425.772217
4409.783694
4417.015850
4448.468229
4398.099341
4427.481964
4458.747047
4440.882185
4450.261796
4418.249485
4423.324805
4431.160516
4422.568457
4401.776904
4378.476321
4380.874619
4403.145983
4410.373213
4398.157284
4404.257845
4377.209818
4440.508644
4402.333762
4444.096786
4463.239746
4425.024941
4417.024898
4431.326074
4423.211519
4436.408157
4414.869511
4453.433020
4383.484117
4476.617779
4367.226312
4476.816272
4404.076661
4468.506882
4489.529831
4489.613590
4475.246577
4447.032553
4467.743720
4451.434360
4465.230019
4402.371162
4464.602820
4402.519100
4498.658552
4390.100781
4420.071839
4438.930826
4467.372686
4392.757218
4477.810885
4413.758908
4433.077438
4425.612887
4436.734765
4446.374347
4427.262439
4434.903442
4413.805834
4453.091323
4396.851710
4468.319019
4378.589044
4518.636679
4396.708085
4429.898668
4443.692204
4464.317731
4445.369250
4441.172898
4452.513014
4441.266393
4454.300259
4448.169666
4434.869048
4399.706694
4468.720137
4355.461020
4470.551713
4373.932022
4517.232858
4461.605783
4384.563834
4433.847130
4435.002728
4426.553548
4439.212505
4419.258326
4425.154457
4445.090302
4434.980285
4432.058053
4426.477297
4466.943643
4357.094944
4475.219644
4425.088152
4412.136934
4426.896406
4460.716608
4460.995473
4448.524896
4478.034546
4465.610351
4451.692822
4428.546525
4396.467926
4427.563701
4424.101341
4447.885687
4446.733984
4408.076260
4385.785481
4377.768280
4444.275423
4452.357589
4431.929162
4433.917397
4445.196148
4439.484619
4450.934836
4426.390799
4421.030094
4440.545289
4416.963496
4420.782648
4478.212129
4435.805103
4421.526456
4454.225373
4481.065149
4481.773907
4450.181187
4446.051649
4419.446022
4438.643973
4434.094211
4446.023912
4443.876932
4473.721735
4440.496923
4463.203206
4449.934891
4388.892232
4477.509097
4481.818683
4449.239452
4403.955677
4432.895379
4435.285820
4426.108166
4407.658805
4397.313047
4448.344768
4422.067614
4443.493906
4427.142031
4422.524130
4379.246383
4470.063338
4411.958663
4426.990553
4453.191816
4428.467852
4491.241485
4472.571832
4458.573238
4459.832805
4452.749267
4415.545326
4396.222982
4427.894135
4394.909814
4446.729143
4387.178871
4421.754140
4388.300261
4405.698538
4403.857220
4445.561845
4429.893993
4433.927197
4437.540510
4413.409416
4456.328240
4428.143570
4424.193132
4419.236612
4408.865026
4435.423443
4435.946516
4430.647643
4448.293912
4664.583548
4465.107454
4437.150681
4463.467388
4464.376959
4452.418604
4440.595023
4443.302492
4462.362273
4449.539712
4462.020146
4419.567938
4432.630184
4431.700330
4405.858476
4454.661812
4440.775399
4429.723320
4447.882922
4421.276275
4427.912477
4413.640769
4443.229885
4400.432137
4422.967054
4433.594406
4426.813199
4423.603271
4443.831656
4403.612403
4435.002126
4431.504563
4802.911418
4427.537134
4509.964746
4461.300409
4472.285830
4459.902682
4470.323812
4466.943605
4447.408216
4446.416681
4447.197694
4427.484901
4436.439566
4400.946543
4449.346210
4424.833192
4420.731823
4422.042114
4401.273838
4430.809568
4436.115827
4427.495149
4435.859667
4421.083359
4448.880840
4408.772798
4446.035319
4394.331231
4450.155993
4425.012914
4463.345572
4440.934222
4734.421836
4456.757223
4471.689508
4449.093529
4474.394776
4460.546013
4448.934817
4435.310488
4446.909774
4425.567171
4447.774950
4458.464655
4447.871931
4424.286881
4432.852626
4415.247855
4431.710900
4440.084390
4434.837380
4421.359971
4430.885727
4416.172388
4441.973028
4413.035700
4423.172125
4422.551094
4442.105683
4390.899783
4416.096771
4427.345733
4560.805711
4392.961992
4376.846429
4444.192692
4424.743267
4465.491994
4445.308871
4456.172835
4447.126416
4465.798653
4448.326103
4467.159603
4452.410193
4429.379940
4448.179862
4447.024098
4437.876972
4441.210379
4442.340769
4404.861613
4423.685135
4416.696320
4437.084316
4428.388320
4432.467009
4437.400640
4423.191376
4429.789069
4427.600123
4420.747848
4482.028686
4375.907192
4393.592695
4398.489943
4426.533970
4488.109064
4508.670801
4410.895435
4436.864497
4472.621939
4450.596151
4457.181130
4453.964940
4436.987637
4459.402843
4426.742473
4462.327543
4423.802426
4440.572860
4410.867625
4441.277907
4428.830853
4419.866262
4425.853324
4426.570378
4407.991916
4437.456522
4420.924991
4417.797299
4411.139473
4445.561047
4396.627300
4457.909952
4396.972808
4450.336918
4434.032016
4416.871005
4416.098782
4441.743922
4432.790049
4467.652409
4470.387820
4457.791177
4447.612408
4453.265181
4446.359370
4450.449262
4438.309712
4447.229651
4420.621593
4452.903555
4441.346280
4431.407043
4417.323792
4417.768849
4416.766280
4444.553044
4432.671191
4415.151958
4431.991661
4445.340916
4422.848995
4451.198771
4436.219766
4425.711892
4393.924451
4442.619717
4428.607249
4364.084836
4526.676548
4470.231526
4450.750242
4442.561484
4438.155952
4456.152584
4467.402188
4481.813237
4461.115443
4448.318455
4451.173747
4428.028146
4459.009991
4409.462349
4435.477476
4433.873001
4411.062025
4426.517600
4416.222261
4423.741215
4425.965492
4425.729164
4423.956034
4405.635197
4430.399336
4428.923886
4407.205844
4422.739854
4471.531584
4458.189802
4487.781064
4432.255845
4475.198534
4521.243248
4516.765134
4463.748678
4434.958574
4469.440028
4481.729911
4445.402054
4436.650177
4457.973840
4456.624760
4462.794750
4433.718118
4435.210140
4426.144006
4442.860986
4416.116994
4418.643286
4418.237889
4443.476105
4433.082363
4415.740258
4435.308511
4424.395069
4411.802628
4409.431332
4430.049565
4407.783870
4328.483455
4461.729989
4431.613283
4432.829493
4426.173089
4507.660279
4462.289915
4374.172689
4447.765204
4444.120985
4419.521873
4463.713789
4459.901357
4465.778450
4419.957776
4442.675257
4409.910244
4455.750431
4419.438258
4419.958532
4417.639107
4412.215975
4416.861547
4420.854181
4423.209185
4433.379239
4410.204054
4424.459203
4434.226590
4439.413787
4400.541065
4449.535707
4473.221682
4479.799147
4412.292087
4511.809139
4529.984149
4492.797935
4457.607131
4402.342085
4386.079050
4458.477283
4468.662375
4470.368363
4435.908253
4458.809309
4469.418194
4442.434185
4443.434838
4436.111396
4430.525650
4448.281492
4427.967914
4417.220685
4412.834349
4447.661296
4430.783971
4445.017447
4431.651825
4429.391200
4406.311933
4421.208094
4451.033468
4399.949758
4363.133462
4512.733910
4430.778297
4497.646493
4489.371434
4465.134555
4477.159658
4532.396277
4484.643417
4472.843117
4462.073640
4471.879118
4485.032458
4451.753853
4459.653902
4457.273898
4445.844033
4437.224245
4441.699125
4424.417218
4408.371705
4422.623302
4412.232322
4426.735231
4437.410229
4422.397714
4435.634236
4439.417530
4438.145431
4433.287538
4412.999110
4447.001945
4463.993588
4449.213726
4456.288964
4445.944006
4469.164891
4484.029823
4493.084873
4476.718201
4449.933217
4451.100508
4423.239120
4407.034836
4450.252997
4445.981214
4457.462055
4433.039214
4441.065989
4442.360385
4421.033807
4439.143008
4420.047527
4415.527744
4410.545650
4444.628845
4438.293144
4424.213752
4420.555063
4408.169903
4444.776334
4415.320878
4442.135257
4433.387986
4392.623724
4434.942109
4458.200525
4458.730634
4470.926206
4482.871751
4468.830941
4447.011668
4496.030165
4432.941887
4434.934260
4427.697732
4423.961388
4457.462578
4461.529352
4453.502876
4453.892449
4442.822492
4443.432471
4433.514095
4420.005249
4417.304426
4410.720316
4412.118118
4422.287272
4421.418120
4441.021380
4429.711139
4420.472764
4415.781378
4439.214663
4450.357776
4445.771166
4452.868619
4427.878485
4447.585686
4472.014765
4459.793050
4473.135580
4466.159509
4467.685510
4472.780873
4455.207007
4458.849363
4472.241031
4465.748888
4456.762468
4465.811182
4461.902015
4440.306972
4439.105089
4423.197817
4410.091874
4421.347420
4410.326654
4448.968508
4432.848748
4438.054635
4408.785639
4421.979542
4434.963774
4431.827788
4425.301549
4438.457241
4421.291251
4450.930930
4454.591279
4457.048707
4452.865617
4466.357673
4471.206624
4467.239225
4481.671234
4454.947198
4441.364336
4433.192481
4371.457638
4459.270059
4426.031163
4458.418863
4431.596735
4454.665953
4428.304786
4440.604276
4424.320884
4416.577885
4409.916805
4416.574303
4442.000091
4432.176771
4441.305288
4414.371787
4420.054058
4419.956922
4449.693272
4423.149274
4447.292105
4443.074213
4453.553219
4432.513344
4460.678549
4463.316167
4458.197790
4472.559371
4458.642914
4424.130593
4464.125446
4430.582131
4417.063526
4433.067891
4456.720746
4466.262092
4453.932665
4468.389824
4449.054666
4434.658781
4409.302620
4412.015898
4411.893669
4443.638109
4437.571045
4409.606469
4423.298545
4441.145409
4416.112840
4435.491875
4434.713820
4421.883006
4435.211748
4446.075537
4452.502132
4454.202543
4448.433774
4446.771139
4461.778259
4458.275635
4448.021285
4470.375240
4430.355029
4444.656866
4408.262834
4375.512696
4474.163712
4408.172292
4475.932672
4429.005104
4452.274721
4432.682556
4436.044837
4417.696545
4407.431586
4399.977475
4424.378084
4423.376036
4424.158248
4425.222908
4425.361983
4426.058703
4426.312329
4426.779801
4427.059730
4427.549806
4427.633595
4427.973322
4427.855897
4428.425889
4405.986757
4421.592254
4421.005333
4422.456839
4423.657511
4423.943561
4424.978978
4425.121959
4426.007804
4426.202494
4426.847896
4427.120209
4427.473035
4427.353917
4430.547428
4411.374430
4421.919213
4420.686993
4422.528434
4423.821155
4423.954859
4425.269922
4425.181338
4426.336735
4426.090548
4427.319702
4426.917232
4427.728869
4428.154198
4429.695876
4414.558095
4423.013857
4421.769330
4423.226381
4424.085128
4424.569446
4425.501690
4425.612246
4426.631142
4426.484009
4427.545430
4427.114687
4428.831653
4427.903696
4431.587797
4418.011126
4423.706366
4423.133428
4423.714553
4424.870954
4424.865468
4426.058169
4425.996971
4426.959833
4426.866288
4427.781980
4427.486976
4428.639297
4427.423638
4431.482211
4419.771939
4424.629149
4424.118978
4424.274076
4425.661533
4425.251334
4426.710461
4426.192109
4427.593538
4427.073783
4428.272301
4427.792973
4428.697151
4427.573770
4429.270551
4421.546849
4425.492890
4424.941670
4425.222462
4426.096716
4425.980811
4427.021770
4426.866262
4427.891333
4427.559205
4428.591497
4428.134704
4428.846928
4427.848609
4429.372229
4423.028642
4426.244983
4425.662963
4425.969542
4426.588706
4426.703784
4427.370801
4427.522986
4428.060188
4428.316227
4428.867783
4428.647350
4429.879796
4428.087050
4429.938526
4424.247070
4426.871769
4426.458605
4426.590913
4427.227801
4427.174503
4427.909336
4427.889396
4428.739963
4428.558505
4429.375442
4429.386390
4430.003437
4429.689025
4430.871758
4425.470075
4427.458815
4427.076752
4427.209483
4427.752177
4427.714382
4428.391848
4428.448045
4428.992017
4429.177862
4429.922096
4429.925360
4430.910993
4430.820368
4431.180549
4426.449525
4428.023141
4427.611098
4427.881381
4428.116294
4428.365615
4428.646070
4428.987968
4429.343550
4429.771982
4429.955864
4430.597339
4431.354907
4431.616481
4432.990704
4427.272942
4428.496308
4428.104246
4428.422743
4428.522425
4428.866676
4429.018735
4429.484934
4429.665250
4430.011893
4430.606085
4430.915632
4431.496211
4431.849875
4432.805165
4428.093099
4428.830673
4428.716210
4428.752247
4429.079951
4429.155602
4429.483575
4429.753250
4430.006286
4430.540669
4430.629147
4431.050364
4431.845913
4432.697654
4432.443399
4428.526432
4426.889719
4444.703689
4389.950508
4431.955895
4452.723369
4430.404925
4458.759885
4471.151606
4459.463438
4471.900946
4448.441664
4424.150299
4458.788201
4415.594690
4404.941921
4428.774165
4429.130135
4429.179904
4429.116992
4429.494447
4429.476771
4429.904304
4430.002914
4430.451168
4430.549952
4430.969094
4431.704433
4431.288527
4432.891976
4434.606605
4437.071971
4445.328504
4432.661443
4451.967172
4456.379226
4441.077748
4433.909003
4450.228966
4460.489916
4428.514740
4456.010875
4515.453293
4440.642544
4442.566740
4428.346275
4402.190370
4429.333042
4429.454737
4429.595719
4429.483572
4429.817520
4429.866690
4430.154805
4430.322613
4430.689730
4430.840779
4431.374285
4431.116774
4431.878852
4432.119561
4431.511814
4428.823096
4424.779105
4421.666138
4447.107980
4421.762996
4405.316560
4452.297765
4426.556152
4465.115532
4460.429828
4414.374749
4414.427226
4429.877342
4470.438062
4448.576613
4410.493930
4429.846218
4429.791974
4429.828515
4429.865152
4430.092435
4430.177843
4430.394318
4430.701448
4430.796664
4431.195158
4431.249632
4431.776241
4431.879354
4431.824517
4433.309502
4432.938184
4438.476109
4415.949367
4435.352377
4425.476249
4447.787191
4437.529009
4440.374505
4444.689787
4442.803191
4442.527244
4451.232866
4380.862383
4402.595601
4479.061153
4385.695098
4430.283102
4430.058095
4430.122971
4430.229554
4430.242850
4430.581680
4430.579288
4430.927895
4431.032149
4431.450687
4431.328557
4432.039990
4431.037909
4432.505613
4431.285335
4436.835058
4417.621730
4444.301997
4428.420550
4441.230053
4413.071350
4409.352664
4398.217863
4424.295808
4458.897173
4441.058359
4445.478630
4423.602283
4379.587497
4428.784933
4411.571644
4430.622290
4430.287649
4430.332009
4430.441344
4430.521605
4430.797450
4430.751192
4431.263730
4431.177766
4431.583531
4431.812103
4431.745577
4432.680858
4433.140796
4432.272162
4422.634842
4458.692066
4431.336153
4441.836623
4430.480452
4409.688696
4433.209081
4440.669950
4431.700858
4411.524523
4416.030179
4427.148126
4407.148046
4428.693505
4430.476415
4383.815810
4430.936842
4430.457596
4430.594881
4430.637576
4430.766528
4430.930989
4431.108106
4431.300633
4431.441849
4431.888260
4431.672333
4432.667867
4431.679634
4432.457404
4435.867566
4436.065795
4436.059534
4429.028310
4440.547872
4461.067380
4447.078643
4411.744293
4422.532879
4386.030613
4426.415023
4445.790695
4400.246602
4440.306642
4433.968477
4450.348529
4405.671676
4431.229013
4430.559743
4430.820340
4430.770678
4430.958612
4431.148539
4431.196783
4431.547082
4431.629751
4431.979955
4432.116441
4432.267089
4433.221796
4433.702395
4432.477475
4443.670312
4408.594555
4429.875826
4422.742945
4410.377428
4446.956726
4393.971114
4435.655531
4444.497906
4458.412079
4445.479092
4401.660221
4426.121873
4438.062289
4432.701649
4371.973499
4431.517490
4430.649668
4431.090088
4430.867725
4431.200145
4431.206841
4431.459851
4431.624538
4431.830433
4431.989799
4432.487140
4432.594157
4432.687257
4433.501424
4434.749053
4412.737075
4436.015950
4448.805875
4445.617601
4421.391519
4429.413194
4438.795785
4407.625170
4418.408483
4441.311374
4445.772074
4433.916031
4433.888429
4464.773937
4392.098338
4451.608508
4431.730803
4430.736505
4431.257627
4430.939877
4431.435866
4431.206208
4431.772930
4431.514980
4432.149619
4432.176391
4432.300787
4432.742552
4433.499009
4433.321815
4436.027778
4399.738874
4421.503232
4396.506964
4425.596300
4428.154488
4438.686783
4420.053392
4430.908703
4418.251139
4425.900578
4468.327915
4453.856598
4462.716133
4474.823408
4450.191317
4459.988132
4431.956694
4430.795658
4431.489647
4431.025621
4431.565716
4431.350866
4431.783517
4431.775597
4432.156948
4432.018248
4432.928955
4432.486636
4432.743315
4433.167728
4432.314914
4431.261926
4455.655106
4449.760472
4469.735355
4419.967026
4439.791952
4419.967214
4431.081486
4415.781003
4426.431235
4461.310801
4428.966820
4486.581643
4483.006126
4472.061734
4480.683616
4432.101747
4430.914565
4431.536835
4431.183094
4431.615982
4431.474295
4431.902436
4431.743188
4432.301464
4432.290894
4432.481490
4432.799796
4433.050562
4433.230150
4433.519296
4438.943088
4452.646526
4420.172988
4421.745795
4447.909516
4443.785509
4436.671736
4429.728432
4432.481371
4430.952861
4457.438118
4436.798309
4455.292631
4455.955689
4453.337281
4451.645867
4432.174492
4431.077108
4431.565907
4431.365985
4431.652227
4431.573095
4431.920401
4431.952116
4432.187356
4432.347604
4432.691918
4432.892545
4432.836184
4433.032709
4433.198535
4433.532637
4419.622691
4441.326657
4457.896626
4450.651422
4451.355507
4455.752626
4437.946364
4447.207231
4432.170806
4438.206196
4465.767930
4447.693468
4436.935093
4464.263208
4452.071915
4432.204086
4431.172655
4431.570709
4431.491099
4431.611202
4431.806387
4431.804959
4432.089551
4432.205082
4432.398747
4432.722934
4432.623411
4433.819520
4433.936311
4434.033603
4434.953073
4457.407997
4420.110202
4404.625918
4427.056278
4436.518528
4462.852212
4410.773248
4403.254406
4466.574239
4452.179655
4451.516706
4435.106703
4427.836926
4445.111045
4445.667687
4432.242312
4431.238867
4431.612066
4431.620872
4431.650713
4431.817710
4431.913169
4432.119043
4432.163387
4432.565806
4432.385033
4433.399741
4432.508930
4434.430109
4435.190727
4443.983464
4432.271927
4449.207192
4415.670879
4448.954855
4445.128547
4452.341347
4445.687207
4443.340658
4436.364060
4425.836602
4434.603493
4461.052209
4468.501842
4463.623627
4452.457162
4432.234309
4431.234628
4431.686387
4431.561708
4431.796902
4431.784848
4431.971658
4432.105851
4432.210153
4432.489611
4432.626710
4432.732277
4433.465042
4433.967500
4432.913926
4444.302978
4451.262373
4413.722828
4444.312207
4445.369676
4451.342020
4438.201327
4444.326231
4438.840160
4451.783244
4442.148716
4452.052977
4440.800463
4433.162138
4444.093952
4451.226290
4432.316973
4431.148854
4431.877281
4431.496519
4431.917899
4431.727305
4432.098470
4431.957195
4432.420104
4432.192298
4432.851802
4432.716809
4433.458875
4433.039565
4435.774591
4417.217204
4449.191872
4421.951032
4444.919617
4439.992605
4452.564987
4448.518865
4410.360067
4414.886426
4446.804347
4434.138367
4424.032068
4448.860984
4449.522441
4449.989386
4450.547640
4432.315858
4431.146385
4431.874970
4431.531008
4431.958223
4431.670418
4432.177905
4431.876377
4432.382996
4432.199157
4432.646009
4432.562740
4433.115990
4433.029578
4434.693974
4423.965896
4441.563534
4413.596901
4439.057605
4415.740975
4432.324369
4422.910300
4442.154588
4447.154661
4467.722060
4430.499150
4436.224545
4429.476068
4430.301625
4450.032669
4447.533877
4432.255440
4431.248571
4431.821191
4431.600760
4431.899446
4431.785529
4432.031425
4431.980996
4432.223308
4432.162038
4432.517478
4432.323419
4432.724198
4433.304081
4431.737971
4424.764897
4424.355266
4421.704523
4450.834842
4407.912786
4462.537784
4408.195429
4408.693190
4431.136360
4436.387242
4457.246756
4458.118647
4446.872420
4463.547506
4455.205998
4451.130504
4432.167680
4431.274298
4431.732323
4431.672254
4431.813649
4431.833721
4431.934700
4432.007370
4432.049158
4432.176826
4432.061582
4432.549519
4431.669704
4432.752727
4433.099938
4436.188078
4436.359599
4440.303303
4423.801517
4434.437791
4446.738983
4435.399370
4442.009374
4431.827419
4427.195875
4430.720655
4450.996346
4449.897397
4443.229798
4452.442212
4444.885981
4432.179477
4431.323495
4431.710511
4431.729163
4431.753051
4431.889156
4431.855931
4432.032036
4431.886949
4432.213043
4431.885603
4431.916318
4432.249616
4431.751319
4430.714188
4431.138754
4429.674577
4420.822402
4417.518888
4434.336967
4418.337091
4430.947913
4429.855181
4423.316021
4442.808513
4446.454901
4441.693192
4443.911516
4454.912617
4450.546407
4448.966499
4432.119073
4431.377750
4431.618051
4431.776380
4431.683959
4431.922511
4431.771254
4432.021894
4431.895262
4431.861249
4431.980005
4431.799125
4431.339425
4431.162886
4431.014789
4432.818332
4421.063788
4442.738985
4423.431069
4429.233849
4442.242600
4447.181591
4444.465842
4444.316021
4442.188806
4423.997264
4450.369416
4441.410551
4445.589112
4442.266143
4447.850280
4432.080748
4431.393709
4431.615453
4431.756942
4431.698433
4431.872696
4431.826323
4431.938856
4431.811998
4432.133495
4431.531298
4431.882917
4431.292963
4430.955086
4430.693074
4434.288083
4413.158808
4431.089541
4422.253007
4434.048500
4435.489333
4459.570795
4442.228257
4450.053198
4420.867491
4445.940018
4445.056950
4442.516572
4444.347689
4442.223370
4444.404067