# vtk DataFile Version 2.0
mfree iwf
ASCII

DATASET UNSTRUCTURED_GRID
POINTS 8760 float
0.000001 0.000445 0.000000
0.000001 0.000450 0.000000
0.000001 0.000455 0.000000
0.000001 0.000460 0.000000
0.000001 0.000465 0.000000
0.000001 0.000470 0.000000
0.000001 0.000475 0.000000
0.000001 0.000480 0.000000
0.000001 0.000485 0.000000
0.000001 0.000490 0.000000
0.000000 0.000496 0.000000
0.000003 0.000500 0.000000
0.000165 0.000570 0.000000
0.000165 0.000579 0.000000
0.000165 0.000611 0.000000
0.000165 0.000619 0.000000
0.000165 0.000619 0.000000
0.000165 0.000623 0.000000
0.000165 0.000632 0.000000
0.000165 0.000631 0.000000
0.000165 0.000640 0.000000
0.000166 0.000669 0.000000
0.000168 0.000675 0.000000
0.000169 0.000680 0.000000
0.000171 0.000684 0.000000
0.000173 0.000689 0.000000
0.000175 0.000693 0.000000
0.000178 0.000699 0.000000
0.000179 0.000702 0.000000
0.000182 0.000707 0.000000
0.000185 0.000714 0.000000
0.000196 0.000740 0.000000
0.000005 0.000445 0.000000
0.000006 0.000450 0.000000
0.000006 0.000455 0.000000
0.000006 0.000460 0.000000
0.000006 0.000465 0.000000
0.000006 0.000470 0.000000
0.000006 0.000475 0.000000
0.000006 0.000480 0.000000
0.000006 0.000485 0.000000
0.000007 0.000490 0.000000
0.000004 0.000496 0.000000
0.000006 0.000499 0.000000
0.000165 0.000607 0.000000
0.000171 0.000620 0.000000
0.000167 0.000649 0.000000
0.000167 0.000655 0.000000
0.000167 0.000660 0.000000
0.000168 0.000664 0.000000
0.000169 0.000667 0.000000
0.000171 0.000672 0.000000
0.000174 0.000678 0.000000
0.000176 0.000683 0.000000
0.000179 0.000690 0.000000
0.000181 0.000695 0.000000
0.000185 0.000701 0.000000
0.000187 0.000708 0.000000
0.000188 0.000712 0.000000
0.000190 0.000716 0.000000
0.000191 0.000726 0.000000
0.000192 0.000730 0.000000
0.000191 0.000727 0.000000
0.000195 0.000736 0.000000
0.000010 0.000445 0.000000
0.000011 0.000450 0.000000
0.000010 0.000456 0.000000
0.000011 0.000460 0.000000
0.000010 0.000465 0.000000
0.000011 0.000470 0.000000
0.000010 0.000475 0.000000
0.000012 0.000480 0.000000
0.000010 0.000486 0.000000
0.000012 0.000490 0.000000
0.000010 0.000497 0.000000
0.000012 0.000498 0.000000
0.000170 0.000609 0.000000
0.000173 0.000619 0.000000
0.000170 0.000635 0.000000
0.000169 0.000642 0.000000
0.000168 0.000646 0.000000
0.000168 0.000652 0.000000
0.000174 0.000650 0.000000
0.000174 0.000661 0.000000
0.000175 0.000666 0.000000
0.000175 0.000673 0.000000
0.000179 0.000676 0.000000
0.000179 0.000685 0.000000
0.000184 0.000685 0.000000
0.000187 0.000692 0.000000
0.000185 0.000697 0.000000
0.000188 0.000704 0.000000
0.000193 0.000719 0.000000
0.000193 0.000723 0.000000
0.000196 0.000731 0.000000
0.000200 0.000736 0.000000
0.000015 0.000445 0.000000
0.000016 0.000450 0.000000
0.000015 0.000455 0.000000
0.000017 0.000459 0.000000
0.000015 0.000466 0.000000
0.000017 0.000470 0.000000
0.000015 0.000476 0.000000
0.000017 0.000480 0.000000
0.000015 0.000485 0.000000
0.000017 0.000489 0.000000
0.000015 0.000495 0.000000
0.000017 0.000498 0.000000
0.000026 0.000500 0.000000
0.000172 0.000626 0.000000
0.000171 0.000639 0.000000
0.000175 0.000640 0.000000
0.000175 0.000656 0.000000
0.000170 0.000658 0.000000
0.000180 0.000662 0.000000
0.000177 0.000668 0.000000
0.000183 0.000674 0.000000
0.000181 0.000680 0.000000
0.000189 0.000687 0.000000
0.000183 0.000690 0.000000
0.000191 0.000698 0.000000
0.000192 0.000703 0.000000
0.000193 0.000708 0.000000
0.000194 0.000712 0.000000
0.000196 0.000715 0.000000
0.000199 0.000723 0.000000
0.000199 0.000728 0.000000
0.000204 0.000734 0.000000
0.000020 0.000445 0.000000
0.000021 0.000450 0.000000
0.000020 0.000456 0.000000
0.000022 0.000460 0.000000
0.000019 0.000465 0.000000
0.000022 0.000469 0.000000
0.000020 0.000475 0.000000
0.000022 0.000480 0.000000
0.000020 0.000486 0.000000
0.000022 0.000491 0.000000
0.000021 0.000497 0.000000
0.000022 0.000499 0.000000
0.000040 0.000500 0.000000
0.000179 0.000626 0.000000
0.000176 0.000632 0.000000
0.000179 0.000637 0.000000
0.000173 0.000647 0.000000
0.000180 0.000650 0.000000
0.000180 0.000657 0.000000
0.000182 0.000669 0.000000
0.000184 0.000666 0.000000
0.000187 0.000677 0.000000
0.000192 0.000680 0.000000
0.000195 0.000688 0.000000
0.000191 0.000693 0.000000
0.000196 0.000698 0.000000
0.000198 0.000703 0.000000
0.000202 0.000713 0.000000
0.000200 0.000718 0.000000
0.000204 0.000724 0.000000
0.000204 0.000728 0.000000
0.000207 0.000733 0.000000
0.000025 0.000445 0.000000
0.000026 0.000450 0.000000
0.000025 0.000455 0.000000
0.000026 0.000459 0.000000
0.000025 0.000466 0.000000
0.000026 0.000471 0.000000
0.000024 0.000476 0.000000
0.000027 0.000480 0.000000
0.000025 0.000485 0.000000
0.000026 0.000489 0.000000
0.000027 0.000492 0.000000
0.000028 0.000500 0.000000
0.000165 0.000590 0.000000
0.000174 0.000627 0.000000
0.000171 0.000631 0.000000
0.000178 0.000644 0.000000
0.000182 0.000646 0.000000
0.000180 0.000655 0.000000
0.000190 0.000658 0.000000
0.000185 0.000660 0.000000
0.000188 0.000671 0.000000
0.000191 0.000674 0.000000
0.000188 0.000682 0.000000
0.000193 0.000684 0.000000
0.000195 0.000693 0.000000
0.000201 0.000702 0.000000
0.000199 0.000708 0.000000
0.000204 0.000707 0.000000
0.000204 0.000719 0.000000
0.000207 0.000715 0.000000
0.000209 0.000726 0.000000
0.000212 0.000731 0.000000
0.000030 0.000445 0.000000
0.000031 0.000450 0.000000
0.000030 0.000457 0.000000
0.000033 0.000461 0.000000
0.000029 0.000465 0.000000
0.000031 0.000469 0.000000
0.000031 0.000474 0.000000
0.000030 0.000478 0.000000
0.000031 0.000486 0.000000
0.000032 0.000492 0.000000
0.000034 0.000497 0.000000
0.000031 0.000499 0.000000
0.000049 0.000500 0.000000
0.000178 0.000617 0.000000
0.000184 0.000634 0.000000
0.000182 0.000640 0.000000
0.000185 0.000645 0.000000
0.000185 0.000653 0.000000
0.000189 0.000663 0.000000
0.000191 0.000666 0.000000
0.000196 0.000668 0.000000
0.000196 0.000678 0.000000
0.000200 0.000681 0.000000
0.000200 0.000691 0.000000
0.000204 0.000694 0.000000
0.000201 0.000697 0.000000
0.000205 0.000700 0.000000
0.000205 0.000710 0.000000
0.000212 0.000717 0.000000
0.000210 0.000721 0.000000
0.000213 0.000724 0.000000
0.000216 0.000729 0.000000
0.000035 0.000445 0.000000
0.000035 0.000450 0.000000
0.000038 0.000455 0.000000
0.000034 0.000456 0.000000
0.000036 0.000465 0.000000
0.000037 0.000471 0.000000
0.000034 0.000478 0.000000
0.000039 0.000481 0.000000
0.000035 0.000484 0.000000
0.000035 0.000488 0.000000
0.000038 0.000492 0.000000
0.000037 0.000498 0.000000
0.000165 0.000562 0.000000
0.000165 0.000584 0.000000
0.000184 0.000627 0.000000
0.000187 0.000639 0.000000
0.000189 0.000649 0.000000
0.000193 0.000647 0.000000
0.000190 0.000654 0.000000
0.000195 0.000661 0.000000
0.000195 0.000672 0.000000
0.000201 0.000672 0.000000
0.000200 0.000685 0.000000
0.000205 0.000683 0.000000
0.000204 0.000689 0.000000
0.000210 0.000701 0.000000
0.000210 0.000705 0.000000
0.000214 0.000708 0.000000
0.000212 0.000712 0.000000
0.000216 0.000717 0.000000
0.000218 0.000722 0.000000
0.000220 0.000727 0.000000
0.000040 0.000445 0.000000
0.000041 0.000450 0.000000
0.000039 0.000460 0.000000
0.000042 0.000457 0.000000
0.000041 0.000465 0.000000
0.000040 0.000470 0.000000
0.000043 0.000475 0.000000
0.000039 0.000476 0.000000
0.000041 0.000487 0.000000
0.000043 0.000491 0.000000
0.000042 0.000497 0.000000
0.000045 0.000498 0.000000
0.000165 0.000519 0.000000
0.000174 0.000615 0.000000
0.000182 0.000622 0.000000
0.000195 0.000634 0.000000
0.000190 0.000644 0.000000
0.000194 0.000654 0.000000
0.000198 0.000655 0.000000
0.000197 0.000662 0.000000
0.000201 0.000667 0.000000
0.000201 0.000675 0.000000
0.000205 0.000677 0.000000
0.000209 0.000686 0.000000
0.000208 0.000692 0.000000
0.000213 0.000694 0.000000
0.000210 0.000698 0.000000
0.000215 0.000704 0.000000
0.000218 0.000711 0.000000
0.000221 0.000716 0.000000
0.000222 0.000721 0.000000
0.000225 0.000725 0.000000
0.000045 0.000445 0.000000
0.000046 0.000450 0.000000
0.000045 0.000455 0.000000
0.000046 0.000461 0.000000
0.000045 0.000465 0.000000
0.000046 0.000469 0.000000
0.000046 0.000478 0.000000
0.000043 0.000481 0.000000
0.000051 0.000484 0.000000
0.000045 0.000485 0.000000
0.000048 0.000493 0.000000
0.000051 0.000498 0.000000
0.000165 0.000525 0.000000
0.000165 0.000604 0.000000
0.000181 0.000632 0.000000
0.000192 0.000639 0.000000
0.000195 0.000643 0.000000
0.000198 0.000650 0.000000
0.000202 0.000660 0.000000
0.000205 0.000663 0.000000
0.000207 0.000671 0.000000
0.000210 0.000675 0.000000
0.000208 0.000681 0.000000
0.000212 0.000689 0.000000
0.000214 0.000684 0.000000
0.000217 0.000697 0.000000
0.000219 0.000701 0.000000
0.000220 0.000706 0.000000
0.000223 0.000710 0.000000
0.000225 0.000714 0.000000
0.000227 0.000719 0.000000
0.000229 0.000723 0.000000
0.000050 0.000445 0.000000
0.000051 0.000450 0.000000
0.000050 0.000456 0.000000
0.000051 0.000459 0.000000
0.000050 0.000465 0.000000
0.000052 0.000471 0.000000
0.000049 0.000473 0.000000
0.000051 0.000478 0.000000
0.000049 0.000488 0.000000
0.000053 0.000491 0.000000
0.000058 0.000493 0.000000
0.000054 0.000499 0.000000
0.000165 0.000552 0.000000
0.000172 0.000602 0.000000
0.000176 0.000610 0.000000
0.000190 0.000634 0.000000
0.000198 0.000642 0.000000
0.000201 0.000647 0.000000
0.000205 0.000653 0.000000
0.000203 0.000654 0.000000
0.000212 0.000664 0.000000
0.000206 0.000667 0.000000
0.000214 0.000676 0.000000
0.000215 0.000680 0.000000
0.000218 0.000688 0.000000
0.000218 0.000692 0.000000
0.000223 0.000696 0.000000
0.000224 0.000700 0.000000
0.000226 0.000706 0.000000
0.000229 0.000712 0.000000
0.000231 0.000717 0.000000
0.000234 0.000721 0.000000
0.000055 0.000445 0.000000
0.000057 0.000450 0.000000
0.000055 0.000455 0.000000
0.000056 0.000461 0.000000
0.000055 0.000465 0.000000
0.000057 0.000469 0.000000
0.000057 0.000477 0.000000
0.000058 0.000482 0.000000
0.000054 0.000483 0.000000
0.000057 0.000487 0.000000
0.000056 0.000497 0.000000
0.000060 0.000497 0.000000
0.000165 0.000559 0.000000
0.000165 0.000601 0.000000
0.000171 0.000608 0.000000
[...]
POINT_DATA 8760
SCALARS density float 1
LOOKUP_TABLE default
4429.443785
4431.242641
4426.177343
4422.377181
4423.619769
4426.886352
4436.669473
4432.105987
4441.078976
4423.562753
4433.790924
4398.594524
4658.673135
4467.279388
4517.794060
4426.724968
4417.216369
4485.060933
4427.985288
4437.425519
4437.206219
4431.283736
4417.045370
4436.575750
4429.490293
4415.486679
4434.002226
4429.658001
4427.717512
4425.533795
4447.241872
4439.657129
4421.426214
4426.030551
4423.826219
4433.764898
4438.838295
4419.857148
4426.567337
4426.741531
4410.210255
4424.188513
4447.192992
4402.230962
4392.994964
4442.145074
4383.248585
4422.479627
4404.699599
4390.721968
4412.197753
4418.794323
4431.364571
4414.360300
4427.192102
4409.880616
4443.132361
4398.447901
4409.773363
4404.449525
4433.355419
4391.001552
4432.908179
4449.428694
4422.230655
4426.345344
4446.620160
4406.677815
4439.433679
4412.588349
4450.400665
4383.873759
4476.059347
4359.514678
4471.695779
4401.292357
4442.344617
4437.279135
4407.084818
4404.919406
4381.358218
4396.590343
4480.531985
4415.595968
4467.778735
4391.187535
4414.534549
4416.086560
4398.679233
4418.457018
4420.163608
4417.439529
4416.529042
4453.411717
4421.372119
4407.479771
4431.892912
4440.448379
4431.308562
4442.354043
4440.078115
4419.434113
4460.910108
4386.647077
4485.170504
4376.511861
4532.917479
4400.970796
4438.520079
4428.478744
4464.251456
4417.088961
4357.509436
4460.992681
4371.799977
4451.065751
4438.086393
4427.908316
4418.365176
4440.749712
4398.305834
4456.663196
4439.394272
4463.870722
4463.694790
4379.795901
4489.462867
4442.206597
4431.280139
4427.839153
4443.276566
4420.199717
4442.678358
4431.761635
4430.441945
4429.183336
4452.504335
4363.034961
4471.700261
4438.222162
4422.685240
4400.581664
4457.965614
4375.341755
4510.130756
4369.616664
4463.691484
4428.339636
4444.897811
4423.632121
4422.000964
4420.610934
4454.968583
4414.051984
4439.599622
4426.622802
4402.766804
4466.411382
4349.896619
4447.633992
4431.496284
4432.217981
4426.650830
4424.967934
4447.033895
4410.939786
4457.307989
4385.158399
4429.466012
4472.902168
4413.261118
4432.035063
4547.658114
4438.586092
4399.893777
4360.944226
4459.488965
4479.961935
4398.570983
4438.105027
4422.582654
4451.578766
4439.439223
4453.330510
4444.224422
4476.078116
4352.262272
4456.289737
4467.421844
4401.223606
4425.673480
4429.560671
4437.923565
4421.124123
4420.427904
4422.652514
4432.219779
4431.485105
4429.131261
4437.606003
4422.613770
4391.685501
4465.143928
4421.397265
4426.064174
4432.546719
4444.409786
4487.785932
4455.142160
4403.476118
4451.096041
4425.061402
4426.324878
4402.651483
4446.588139
4421.295667
4432.937067
4415.816995
4393.241185
4468.580490
4459.422420
4406.976615
4412.698009
4433.759750
4438.784296
4432.358044
4411.209749
4435.048444
4436.605787
4435.494045
4438.933571
4414.221411
4426.730854
4446.027901
4421.079168
4445.266241
4610.389658
4402.203030
4440.375785
4391.178383
4466.877785
4420.619785
4446.605289
4431.944539
4440.614878
4419.622936
4415.742967
4439.234853
4430.268814
4449.697590
4398.889035
4436.463315
4415.872126
4439.131527
4417.097374
4428.047134
4425.737882
4445.530740
4433.833696
4420.419100
4433.815809
4425.581717
4438.645203
4402.545297
4446.527885
4424.392002
4427.745721
4423.332929
4568.813885
4440.125582
4436.280052
4435.431111
4394.935776
4455.034047
4447.220237
4443.718307
4448.530645
4448.948238
4448.850302
4443.514271
4406.666026
4404.997231
4451.425756
4424.611053
4413.454320
4418.198023
4418.483911
4433.296204
4432.647368
4417.795324
4420.933736
4417.164155
4435.236162
4426.702523
4431.403620
4444.822833
4465.819348
4395.457339
4469.768966
4443.666636
4478.973149
4397.156749
4434.413506
4468.596597
4471.116227
4424.407265
4406.027194
4454.220462
4433.134332
4422.266589
4408.459086
4438.488137
4439.263231
4404.047035
4436.649887
4428.446197
4432.029476
4449.775469
4427.803937
4416.763991
4432.305581
4423.931014
4433.622477
4436.199218
4405.691016
4428.598890
4451.988258
4367.556728
4406.033183
4403.796149
4562.922241
4402.054408
4625.611643
4471.329193
4445.111004
4451.613229
4441.646152
4423.092249
4441.333431
4450.626420
4444.454000
4444.952162
4449.164444
4436.536591
4438.468414
4472.381886
4445.425944
4445.184179
4412.907504
4427.336549
4419.350298
4423.466640
4432.811161
4423.168943
4415.437892
4420.109387
4440.212776
4408.202049
4445.403631
4409.235976
4485.319489
4371.950977
4400.892808
4385.348275
4418.920393
4477.053686
4435.790743
4432.648008
4428.618380
4463.719508
4457.406619
4454.105079
4450.978102
4476.429125
4454.776038
4401.101482
4452.835903
4411.305120
4420.531404
4438.061560
4447.423185
4418.774948
4426.133698
4422.581828
4429.023311
4406.250568
4437.881943
4398.525396
4432.533281
4403.934902
4463.571357
4394.826976
4468.887565
4405.395060
4452.951915
4442.031083
4408.720092
4382.318812
4458.418715
4406.604060
4390.831945
4444.957905
4441.164908
4432.709423
4425.098152
4437.469100
4408.201065
4438.274836
4440.315135
4452.910401
4439.214227
4442.575196
4414.636389
4420.787554
4426.113591
4417.816240
4437.756967
4420.109223
4429.523143
4425.025419
4441.245483
4417.880786
4460.033117
4438.203434
4452.107194
4363.872396
4448.086484
4430.925457
4644.746688
4477.373194
4403.293621
4424.844463
4473.848502
4441.547114
4417.102606
4453.700174
4415.081691
4441.577887
4449.186987
4418.204685
4442.457025
4398.993919
4428.907380
4439.632968
4445.144169
4422.448686
4425.592818
4419.738107
4428.877698
4422.957724
4422.184465
4420.409707
4424.566243
4412.393732
4440.927278
4386.337299
4439.501109
4451.660401
4439.866813
4447.845377
4492.603039
4416.217134
4377.866985
4449.528152
4461.599840
4410.207423
4460.974244
4469.731317
4456.020413
4436.486768
4424.705889
4425.440417
4397.447512
4456.281503
4427.613911
4417.370586
4439.365910
4409.560906
4423.308887
4420.234968
4440.539000
4426.391550
4425.490217
4425.505278
4426.342888
4429.792331
4422.242873
4436.187506
4445.526417
4369.294768
4431.519116
4446.491016
4424.050821
4417.031184
4412.530738
4477.317058
4419.869894
4462.408947
4457.013622
4443.384614
4434.979401
4455.347559
4442.937574
4447.405358
4447.623687
4450.035544
4442.054402
4441.591821
4424.086605
4436.365781
4415.578525
4416.630896
4421.973914
4420.274995
4435.544156
4421.638540
4437.725783
4408.113389
4419.987657
4411.436390
4399.309243
4512.310142
4362.603809
4427.818282
4423.773966
4383.777648
4465.656986
4408.629887
4450.792790
4427.676398
4417.244758
4395.426132
4433.249516
4453.966318
4459.624167
4428.369147
4449.302911
4460.310477
4427.966973
4452.898124
4410.917005
4430.335695
4418.350235
4419.545369
4447.109190
4422.081543
4429.210899
4430.929924
4424.478750
4427.111564
4449.522953
4416.560051
4452.788973
4418.293987
4448.791332
4476.628372
4566.947120
4566.852846
4500.222691
4460.517266
4446.428857
4413.936537
4445.585535
4465.482970
4437.696419
4437.939943
4440.857241
4444.997338
4420.916243
4452.360024
4443.541017
4397.925591
4437.121625
4432.081598
4418.463673
4423.799829
4418.257584
4426.682193
4439.125345
4421.649249
4430.650562
4435.685035
4417.867961
4456.518023
4446.582786
4443.466985
4394.306413
4413.648367
4408.049724
4417.966347
4396.635879
4556.996051
4450.979878
4418.838445
4457.059886
4448.869862
4437.301701
4423.484495
4445.430021
4448.867278
4449.904720
4423.201950
4469.269767
4433.929418
4440.291167
4413.637239
4415.201690
4421.025378
4447.136935
4438.059566
4428.913726
4436.828955
4422.939050
4416.607838
4401.385213
4437.837812
4423.536048
4423.668057
4437.349051
4435.837170
4396.244212
4411.077756
4409.101620
4480.212291
4457.105147
4496.427512
4423.324350
4389.808539
4478.824347
4432.952376
4430.619430
4409.182390
4461.725554
4458.941313
4436.958570
4416.798629
4419.799500
4432.488624
4420.090196
4419.875782
4413.668127
4427.242822
4420.342779
4428.191059
4426.327066
4414.984164
4429.193940
4381.997064
4445.637581
4482.691588
4388.268715
4568.502049
4451.843464
4493.965016
4421.819312
4474.064652
4467.843346
4491.888533
4448.451916
4456.975879
4433.605908
4472.176404
4432.852188
4438.894318
4404.568366
4456.769449
4423.876301
4466.188391
4440.240843
4432.481724
4423.953522
4412.830973
4449.174528
4432.559583
4414.753168
4416.649447
4415.197879
4438.525539
4447.555116
4424.601575
4458.176412
4395.696733
4419.334037
4430.713269
4459.785312
4470.861263
4492.778308
4496.736870
4541.987348
4449.028368
4448.442488
4446.473846
4390.021139
4370.861531
4439.601527
4448.070643
4470.288279
4394.427466
4461.091356
4420.063824
4426.360159
4402.407308
4429.259270
4422.889322
4425.404938
4431.464990
4432.288495
4436.353748
4417.173196
4396.966651
4436.903789
4399.554346
4430.572535
4361.789729
4348.056958
4510.400016
4417.767804
4432.790184
4474.697394
4442.599100
4453.151704
4471.777140
4417.314946
4448.691496
4441.794097
4415.488189
4427.402449
4452.534742
4462.522103
4421.517963
4453.388629
4430.240157
4464.242154
4430.760674
4417.735167
4423.490479
4443.137536
4444.260905
4427.215546
4417.337192
4436.553941
4432.544259
4432.791121
4419.670466
4473.050610
4468.626156
4462.698674
4407.652614
4480.851067
4496.742435
4446.685994
4462.103432
4447.358993
4549.385998
4424.033240
4394.513406
4462.605486
4432.227438
4378.768082
4377.614994
4447.563728
4469.025129
4429.142702
4444.179767
4415.198310
4413.163064
4428.903244
4422.194501
4410.996661
4427.072289
4426.394677
4427.039803
4427.788586
4427.866774
4428.399211
4428.494349
4428.950037
4429.010770
4429.427062
4429.415339
4429.647445
4429.552300
4429.675469
4415.536174
4425.359222
4425.050444
4426.183076
4426.891987
4427.196607
4427.946998
4427.933305
4428.579499
4428.529949
4429.154284
4429.103687
4429.361247
4429.296639
4431.358495
4419.218491
4425.423740
4424.644070
4425.901666
4426.864792
4426.844144
4427.758454
4427.641705
4428.567268
4428.239163
4429.131845
4428.638916
4429.343933
4429.418148
4429.886194
4421.168436
4426.036218
4425.324759
4426.342150
4426.783075
4427.210253
4427.798984
4427.879633
4428.363727
4428.390221
4428.851682
4428.761061
4429.513216
4428.965351
4430.823054
4423.381827
4426.431299
4425.927082
4426.484339
4426.963232
4427.236017
4427.620016
4427.886084
4428.315089
4428.395214
4428.830926
4428.584087
4429.370758
4428.525208
4429.974057
4424.258014
4426.937887
4426.474681
4426.761584
4427.395676
4427.291327
4428.108380
4427.855279
4428.549971
4428.242791
4428.955879
4428.648076
4429.105817
4428.163206
4430.038898
4425.144880
4427.268573
4426.875206
4427.046526
4427.463168
4427.457018
4427.985235
4427.893128
4428.535636
4428.434845
4428.917605
4428.576866
4429.071078
4427.797804
4429.022760
4425.844207
4427.633321
4427.254033
4427.347742
4427.782482
4427.742798
4428.181469
4428.227079
4428.593273
4428.472124
4429.057163
4428.744134
4429.306274
4427.971826
4428.200184
4426.282622
4427.915126
4427.450044
4427.624499
4427.844717
4427.756001
4428.314453
4428.040276
4428.733968
4428.623478
4429.178763
4429.003379
4429.560067
4429.261644
4429.540899
4426.921024
4428.214535
4427.673379
4427.964396
4427.944087
4428.284915
4428.189548
4428.634929
4428.611110
4428.868803
4429.080788
4429.496928
4430.110864
4429.496249
4431.127193
4427.050353
4428.436487
4427.758917
4428.193710
4427.932516
4428.289383
4428.207404
4428.567804
4428.494334
4429.063520
4429.170396
4429.404133
4430.252368
4430.448201
4431.168676
4427.494586
4428.571597
4427.998866
4428.271850
4428.285757
4428.351712
4428.553614
4428.497521
4428.923840
4428.755937
4429.196281
4429.515971
4429.968644
4430.657304
4429.901611
4427.849785
4428.477652
4428.403299
4428.200440
4428.357756
4428.335596
4428.457384
4428.540531
4428.655782
4428.870140
4429.119322
4429.181537
4429.721197
4430.203978
4431.324743
4429.378710
4427.852687
4423.337888
4445.883675
4417.521632
4451.625640
4442.504116
4492.993098
4393.588242
4482.254829
4458.685007
4484.119644
4432.745541
4427.773432
4425.548704
4409.610554
4428.035053
4428.676358
4428.399260
4428.371973
4428.575926
4428.395631
4428.688298
4428.549058
4428.831902
4428.637383
4428.902604
4428.944491
4429.352412
4429.146185
4430.862613
4435.788242
4432.349823
4403.073885
4416.493051
4444.378681
4434.401607
4450.410786
4448.528925
4453.519197
4434.683448
4448.160069
4435.802850
4408.761666
4451.818894
4403.137868
4410.941893
4427.966149
4428.692899
4428.559982
4428.355829
4428.586267
4428.318149
4428.733682
4428.223719
4428.859776
4428.248911
4429.132812
4428.085060
4429.242754
4428.258898
4428.290657
4441.688790
4430.860498
4409.624402
4372.370100
4393.450778
4448.404222
4477.645787
4470.875690
4460.153061
4444.776274
4418.845260
4374.791176
4429.707241
4444.511911
4377.120081
4426.464348
4428.195579
4428.781568
4428.673321
4428.390125
4428.810606
4428.427238
4428.739246
4428.513466
4428.784801
4428.296593
4428.730766
4428.096261
4428.664310
4426.569432
4430.317368
4439.520390
4416.313078
4429.498046
4390.917194
4463.948286
4447.677155
4455.362421
4500.043110
4456.593627
4422.868854
4463.940884
4470.203795
4409.237941
4397.665462
4376.150796
4409.197786
4428.170290
4428.931399
4428.606875
4428.666005
4428.591018
4428.499597
4428.691234
4428.343186
4428.486673
4428.449843
4428.163745
4427.735731
4427.773207
4426.501373
4425.828040
4429.236544
4403.651408
4421.748590
4427.055145
4440.171071
4505.276161
4485.816033
4495.401919
4439.539259
4439.681043
4449.328160
4466.854104
4432.523445
4358.205790
4427.416394
4412.284747
4428.233002
4429.118395
4428.589358
4428.837610
4428.569538
4428.914328
4428.413001
4428.821382
4428.552287
4428.155543
4428.274973
4427.357794
4427.565751
4425.485372
4422.030813
4415.630035
4402.564144
4417.278625
4405.738209
4458.096208
4486.418885
4464.430561
4483.077737
4418.294922
4436.047372
4447.247396
4456.371439
4438.043003
4417.057888
4434.256394
4420.388649
4428.428957
4429.167268
4428.666358
4428.990942
4428.533710
4428.839259
4428.503572
4428.778061
4428.115520
4428.918363
4427.476550
4428.337725
4425.786443
4427.001562
4424.299448
4450.763321
4403.717039
4383.690374
4431.730359
4421.035603
4450.170064
4454.938247
4461.999836
4448.023474
4459.851291
4457.463190
4446.593705
4448.997389
4450.769739
4472.006669
4425.401842
4428.452673
4429.308680
4428.682771
4429.076290
4428.624495
4429.105976
4428.551059
4428.915819
4428.601914
4428.450373
4428.257605
4427.985883
4428.191052
4427.701409
4426.008328
4425.728059
4433.694153
4413.175314
4439.414937
4437.573281
4438.876810
4441.736569
4454.683954
4444.113683
4446.663421
4461.919075
4454.789798
4448.772041
4458.723294
4418.347090
4418.913496
4428.494565
4429.179277
4428.977524
4428.899069
4428.965913
4428.831732
4428.902494
4428.780948
4428.816883
4428.546256
4428.863624
4428.492418
4428.338170
4428.716242
4430.055852
4441.924972
4428.097532
4442.569730
4449.146650
4423.195584
4452.437382
4438.918099
4463.995678
4433.279100
4442.222753
4462.617935
4460.515423
4450.697049
4466.322253
4413.859531
4418.121648
4428.642017
4429.226200
4429.139281
4429.000698
4429.135604
4428.996671
4429.128900
4428.893720
4428.958418
4428.918328
4428.674674
4428.627233
4429.756152
4429.386954
4429.385515
4428.490624
4423.459132
4443.370380
4424.627645
4426.659465
4433.072089
4432.381510
4437.518439
4455.568728
4446.338075
4439.368986
4414.321405
4462.322886
4456.026434
4398.320218
4439.659620
4428.741474
4429.401850
4429.088493
4429.291663
4428.990281
4429.312925
4428.915947
4429.181715
4429.048326
4428.772537
4429.170928
4429.271558
4428.394839
4429.918007
4430.189242
4426.971946
4432.838928
4434.963666
4453.340911
4428.995321
4450.007702
4448.080938
4452.684120
4450.320386
4456.866820
4417.371020
4471.497198
4439.594975
4488.531631
4429.530027
4427.028971
4428.818045
4429.494451
4429.175404
4429.362168
4429.212783
4429.333493
4429.240828
4429.285724
4428.952233
4429.472198
4428.754684
4429.006661
4428.982137
4429.467296
4426.913882
4420.411905
4406.565928
4401.378053
4428.149010
4399.654338
4407.240590
4453.562411
4474.175193
4458.938175
4465.260270
4452.569656
4445.982531
4434.790967
4441.015052
4419.795925
4432.069796
4429.008144
4429.499578
4429.441020
4429.437100
4429.284765
4429.519795
4429.141122
4429.430026
4429.287577
4429.112338
4429.288549
4429.320399
4428.482251
4428.538190
4428.219385
4428.438996
4436.067220
4418.755245
4428.310933
4457.594012
4421.544943
4398.027728
4420.319572
4413.046951
4408.715558
4456.921257
4462.933221
4459.866516
4465.208048
4366.125572
4410.173909
4429.092298
4429.681791
4429.421745
4429.667104
4429.418469
4429.594923
4429.548210
4429.499883
4429.373015
4429.563485
4429.122715
4429.115583
4429.221721
4428.631900
4429.170588
4438.406827
4429.678104
4403.862192
4418.378881
4436.929740
4466.377931
4442.223797
4424.962230
4442.690815
4436.506156
4449.720391
4400.561976
4439.241260
4446.001972
4528.963784
4467.479064
4429.324180
4429.737245
4429.652468
4429.655486
4429.653923
4429.765885
4429.509262
4429.781502
4429.441887
4429.593214
4429.243520
4429.492415
4428.963629
4429.772307
4430.189025
4428.929049
4415.809372
4435.942277
4427.809767
4431.506364
4434.819285
4420.297535
4434.863644
4416.531573
4418.132498
4408.491842
4455.974367
4446.181857
4442.678255
4388.294246
4412.835732
4429.454118
4429.789888
4429.824038
4429.995857
4429.681743
4429.982476
4429.806711
4429.724165
4429.868015
4429.391765
4429.894242
4429.149655
4429.485051
4429.724044
4428.951655
4436.840446
4412.756867
4433.499394
4431.899901
4441.480145
4434.928192
4414.986599
4422.652127
4420.414700
4451.952759
4436.100333
4449.609334
4425.336077
4418.585095
4472.397972
4389.690721
4429.799031
4429.860017
4430.117346
4429.770013
4430.272677
4429.766034
4430.218608
4429.781703
4429.986387
4429.964777
4429.555516
4429.982897
4429.705410
4429.289993
4431.922997
4423.916249
4440.934912
4422.733796
4438.494005
4445.288805
4454.150494
4440.224837
4426.984644
4418.602471
4442.513244
4427.568900
4428.137931
4452.351294
4409.171105
4415.487727
4463.000994
4430.018074
4429.829822
4430.470243
4429.967391
4430.405315
4430.065232
4430.320204
4430.076634
4430.192908
4429.802733
4430.088970
4429.562270
4429.486559
4429.138826
4430.196431
4428.689833
4415.495310
4433.329604
4414.950920
4401.152875
4426.500672
4429.479998
4386.462531
4428.387942
4424.289879
4457.998022
4445.590689
4440.394638
4433.727281
4404.724137
4478.376446
4430.383080
4430.256618
4430.305538
4430.516384
4430.217881
4430.487674
4430.350521
4430.212722
4430.399834
4430.009477
4430.434595
4429.510280
4430.499096
4429.426414
4428.433586
4410.079602
4446.299796
4391.673810
4447.535574
4428.864064
4443.071629
4434.533834
4407.142788
4416.549488
4463.556597
4446.569952
4430.680605
4414.579390
4449.390283
4462.314029
4459.415025
4430.554152
4430.447967
4430.466699
4430.585538
4430.592849
4430.565181
4430.570714
4430.613908
4430.452032
4430.604527
4430.003481
4430.761855
4429.373327
4429.294456
4431.715263
4427.826723
4440.778278
4429.921430
4430.709070
4449.790834
4446.191229
4429.736782
4452.197387
4449.669619
4411.807569
4450.790564
4448.458568
4451.919772
4449.366663
4450.638043
4453.276787
4430.974696
4430.393184
4430.931078
4430.610940
4430.807869
4430.754767
4430.818063
4430.831734
4430.732620
4430.747492
4430.888281
4430.096270
4430.764889
4430.639871
4429.124455
4429.116943
4447.354321
4425.467570
4431.616505
4432.891692
4400.314654
4437.406837
4439.822630
4429.187973
4417.470066
4442.112924
4451.019992
4462.163330
4462.330467
4479.429162
4447.626786
4431.407090
4430.689208
4430.945045
4431.024678
4430.944044
4431.041871
4431.077565
4430.940647
4431.191871
4430.843999
4430.820710
4431.129678
4430.471550
4430.308104
4430.189936
4442.763144
4417.220846
4444.953319
4452.646400
4449.191162
4436.207645
4466.084889
4393.605914
4398.151575
4448.147004
4443.213696
4450.247054
4444.256154
4461.837037
4461.943367
4451.338492
4431.677737
4430.965725
4431.055080
4431.233923
4431.041074
4431.335734
4431.095886
4431.508331
4430.960256
4431.755611
4431.100545
4431.503394
4430.856100
4431.437770
4431.991434
4435.784903
4413.518311
4434.840714
4435.646878
4452.895747
4449.508743
4436.782132
4440.424967
4462.216699
4419.126839
4431.119573
4433.279342
4438.409486
4438.931724
4468.147283
4451.518232