# vtk DataFile Version 2.0
mfree iwf
ASCII

DATASET UNSTRUCTURED_GRID
POINTS 11286 float
0.000000 0.000445 0.000000
0.000000 0.000450 0.000000
0.000000 0.000455 0.000000
0.000000 0.000460 0.000000
0.000000 0.000465 0.000000
0.000000 0.000470 0.000000
0.000000 0.000475 0.000000
-0.000000 0.000480 0.000000
0.000000 0.000485 0.000000
0.000000 0.000490 0.000000
-0.000000 0.000496 0.000000
0.000002 0.000500 0.000000
0.000978 0.000965 0.000000
0.000987 0.000964 0.000000
0.001033 0.000953 0.000000
0.001038 0.000951 0.000000
0.001037 0.000951 0.000000
0.001044 0.000949 0.000000
0.001051 0.000946 0.000000
0.001047 0.000948 0.000000
0.001061 0.000944 0.000000
0.001086 0.000934 0.000000
0.001091 0.000930 0.000000
0.001095 0.000927 0.000000
0.001098 0.000924 0.000000
0.001102 0.000920 0.000000
0.001106 0.000917 0.000000
0.001109 0.000913 0.000000
0.001112 0.000911 0.000000
0.001117 0.000906 0.000000
0.001122 0.000902 0.000000
0.001142 0.000891 0.000000
0.000005 0.000445 0.000000
0.000005 0.000450 0.000000
0.000005 0.000455 0.000000
0.000005 0.000460 0.000000
0.000005 0.000465 0.000000
0.000005 0.000470 0.000000
0.000005 0.000475 0.000000
0.000005 0.000480 0.000000
0.000005 0.000485 0.000000
0.000006 0.000490 0.000000
0.000003 0.000496 0.000000
0.000006 0.000499 0.000000
0.001028 0.000954 0.000000
0.001033 0.000945 0.000000
0.001067 0.000939 0.000000
0.001073 0.000937 0.000000
0.001078 0.000935 0.000000
0.001081 0.000933 0.000000
0.001083 0.000931 0.000000
0.001086 0.000928 0.000000
0.001089 0.000925 0.000000
0.001094 0.000921 0.000000
0.001100 0.000916 0.000000
0.001105 0.000912 0.000000
0.001108 0.000907 0.000000
0.001116 0.000902 0.000000
0.001118 0.000898 0.000000
0.001123 0.000895 0.000000
0.001134 0.000892 0.000000
0.001136 0.000891 0.000000
0.001131 0.000894 0.000000
0.001140 0.000889 0.000000
0.000010 0.000445 0.000000
0.000011 0.000450 0.000000
0.000010 0.000455 0.000000
0.000011 0.000460 0.000000
0.000010 0.000465 0.000000
0.000010 0.000469 0.000000
0.000010 0.000475 0.000000
0.000011 0.000480 0.000000
0.000009 0.000486 0.000000
0.000012 0.000489 0.000000
0.000009 0.000497 0.000000
0.000011 0.000498 0.000000
0.001027 0.000950 0.000000
0.001036 0.000943 0.000000
0.001052 0.000942 0.000000
0.001060 0.000940 0.000000
0.001064 0.000939 0.000000
0.001069 0.000937 0.000000
0.001060 0.000934 0.000000
0.001069 0.000930 0.000000
0.001074 0.000930 0.000000
0.001080 0.000926 0.000000
0.001089 0.000921 0.000000
0.001093 0.000917 0.000000
0.001093 0.000912 0.000000
0.001098 0.000909 0.000000
0.001103 0.000908 0.000000
0.001113 0.000903 0.000000
0.001126 0.000894 0.000000
0.001128 0.000892 0.000000
0.001133 0.000886 0.000000
0.001135 0.000881 0.000000
0.000014 0.000445 0.000000
0.000016 0.000450 0.000000
0.000014 0.000456 0.000000
0.000017 0.000460 0.000000
0.000015 0.000470 0.000000
0.000015 0.000464 0.000000
0.000014 0.000476 0.000000
0.000016 0.000480 0.000000
0.000014 0.000485 0.000000
0.000016 0.000489 0.000000
0.000014 0.000495 0.000000
0.000016 0.000498 0.000000
0.000025 0.000500 0.000000
0.001040 0.000944 0.000000
0.001054 0.000940 0.000000
0.001050 0.000936 0.000000
0.001064 0.000932 0.000000
0.001073 0.000935 0.000000
0.001076 0.000925 0.000000
0.001083 0.000922 0.000000
0.001078 0.000919 0.000000
0.001085 0.000918 0.000000
0.001095 0.000904 0.000000
0.001098 0.000913 0.000000
0.001104 0.000901 0.000000
0.001109 0.000903 0.000000
0.001109 0.000897 0.000000
0.001114 0.000896 0.000000
0.001118 0.000891 0.000000
0.001122 0.000889 0.000000
0.001126 0.000886 0.000000
0.001133 0.000878 0.000000
0.000019 0.000445 0.000000
0.000021 0.000450 0.000000
0.000018 0.000455 0.000000
0.000022 0.000458 0.000000
0.000018 0.000468 0.000000
0.000025 0.000467 0.000000
0.000018 0.000475 0.000000
0.000022 0.000478 0.000000
0.000019 0.000486 0.000000
0.000021 0.000491 0.000000
0.000021 0.000497 0.000000
0.000022 0.000499 0.000000
0.000039 0.000500 0.000000
0.001036 0.000932 0.000000
0.001043 0.000938 0.000000
0.001050 0.000931 0.000000
0.001057 0.000937 0.000000
0.001067 0.000926 0.000000
0.001066 0.000922 0.000000
0.001081 0.000917 0.000000
0.001071 0.000921 0.000000
0.001083 0.000912 0.000000
0.001084 0.000903 0.000000
0.001089 0.000899 0.000000
0.001095 0.000899 0.000000
0.001104 0.000895 0.000000
0.001110 0.000887 0.000000
0.001115 0.000888 0.000000
0.001119 0.000885 0.000000
0.001127 0.000880 0.000000
0.001130 0.000883 0.000000
0.001130 0.000875 0.000000
0.000024 0.000445 0.000000
0.000026 0.000450 0.000000
0.000024 0.000456 0.000000
0.000026 0.000461 0.000000
0.000021 0.000466 0.000000
0.000025 0.000472 0.000000
0.000023 0.000476 0.000000
0.000027 0.000481 0.000000
0.000023 0.000485 0.000000
0.000026 0.000488 0.000000
0.000026 0.000493 0.000000
0.000027 0.000500 0.000000
0.001007 0.000960 0.000000
0.001043 0.000941 0.000000
0.001047 0.000941 0.000000
0.001062 0.000928 0.000000
0.001054 0.000925 0.000000
0.001074 0.000924 0.000000
0.001073 0.000915 0.000000
0.001063 0.000921 0.000000
0.001072 0.000912 0.000000
0.001088 0.000914 0.000000
0.001087 0.000908 0.000000
0.001090 0.000908 0.000000
0.001099 0.000904 0.000000
0.001100 0.000899 0.000000
0.001113 0.000892 0.000000
0.001108 0.000892 0.000000
0.001122 0.000882 0.000000
0.001114 0.000882 0.000000
0.001124 0.000877 0.000000
0.001127 0.000871 0.000000
0.000030 0.000445 0.000000
0.000031 0.000450 0.000000
0.000029 0.000455 0.000000
0.000031 0.000460 0.000000
0.000032 0.000465 0.000000
0.000028 0.000469 0.000000
0.000032 0.000472 0.000000
0.000030 0.000477 0.000000
0.000030 0.000486 0.000000
0.000031 0.000492 0.000000
0.000033 0.000497 0.000000
0.000030 0.000499 0.000000
0.000049 0.000500 0.000000
0.001032 0.000939 0.000000
0.001045 0.000929 0.000000
0.001056 0.000930 0.000000
0.001052 0.000927 0.000000
0.001059 0.000924 0.000000
0.001065 0.000913 0.000000
0.001079 0.000905 0.000000
0.001078 0.000912 0.000000
0.001081 0.000907 0.000000
0.001090 0.000903 0.000000
0.001095 0.000890 0.000000
0.001097 0.000895 0.000000
0.001101 0.000891 0.000000
0.001105 0.000883 0.000000
0.001105 0.000888 0.000000
0.001112 0.000878 0.000000
0.001118 0.000878 0.000000
0.001122 0.000874 0.000000
0.001124 0.000868 0.000000
0.000035 0.000445 0.000000
0.000035 0.000450 0.000000
0.000034 0.000456 0.000000
0.000038 0.000454 0.000000
0.000034 0.000467 0.000000
0.000037 0.000472 0.000000
0.000032 0.000479 0.000000
0.000041 0.000478 0.000000
0.000035 0.000484 0.000000
0.000034 0.000488 0.000000
0.000037 0.000491 0.000000
0.000036 0.000498 0.000000
0.000965 0.000963 0.000000
0.001003 0.000961 0.000000
0.001041 0.000932 0.000000
0.001047 0.000923 0.000000
0.001060 0.000917 0.000000
0.001052 0.000914 0.000000
0.001068 0.000916 0.000000
0.001066 0.000908 0.000000
0.001074 0.000908 0.000000
0.001068 0.000901 0.000000
0.001077 0.000894 0.000000
0.001088 0.000890 0.000000
0.001091 0.000894 0.000000
0.001096 0.000886 0.000000
0.001109 0.000881 0.000000
0.001101 0.000870 0.000000
0.001114 0.000873 0.000000
0.001116 0.000872 0.000000
0.001119 0.000869 0.000000
0.001121 0.000864 0.000000
0.000040 0.000445 0.000000
0.000041 0.000450 0.000000
0.000036 0.000461 0.000000
0.000040 0.000459 0.000000
0.000042 0.000463 0.000000
0.000039 0.000468 0.000000
0.000042 0.000472 0.000000
0.000037 0.000478 0.000000
0.000041 0.000487 0.000000
0.000042 0.000491 0.000000
0.000041 0.000497 0.000000
0.000044 0.000498 0.000000
0.000821 0.000902 0.000000
0.001028 0.000946 0.000000
0.001032 0.000935 0.000000
0.001042 0.000919 0.000000
0.001056 0.000919 0.000000
0.001061 0.000912 0.000000
0.001057 0.000914 0.000000
0.001073 0.000904 0.000000
0.001079 0.000899 0.000000
0.001083 0.000897 0.000000
0.001076 0.000899 0.000000
0.001083 0.000887 0.000000
0.001091 0.000885 0.000000
0.001096 0.000880 0.000000
0.001100 0.000885 0.000000
0.001101 0.000880 0.000000
0.001106 0.000877 0.000000
0.001110 0.000869 0.000000
0.001116 0.000866 0.000000
0.001118 0.000860 0.000000
0.000044 0.000445 0.000000
0.000046 0.000450 0.000000
0.000044 0.000455 0.000000
0.000045 0.000460 0.000000
0.000044 0.000468 0.000000
0.000046 0.000474 0.000000
0.000046 0.000479 0.000000
0.000040 0.000483 0.000000
0.000052 0.000485 0.000000
0.000045 0.000484 0.000000
0.000048 0.000493 0.000000
0.000050 0.000498 0.000000
0.000827 0.000907 0.000000
0.001023 0.000954 0.000000
0.001046 0.000933 0.000000
0.001051 0.000920 0.000000
0.001047 0.000917 0.000000
0.001061 0.000907 0.000000
0.001062 0.000902 0.000000
0.001068 0.000903 0.000000
0.001071 0.000893 0.000000
0.001081 0.000892 0.000000
0.001086 0.000896 0.000000
0.001092 0.000881 0.000000
0.001085 0.000882 0.000000
0.001093 0.000876 0.000000
0.001101 0.000875 0.000000
0.001106 0.000872 0.000000
0.001105 0.000867 0.000000
0.001109 0.000865 0.000000
0.001113 0.000862 0.000000
0.001114 0.000856 0.000000
0.000049 0.000445 0.000000
0.000052 0.000450 0.000000
0.000049 0.000454 0.000000
0.000054 0.000455 0.000000
0.000048 0.000464 0.000000
0.000050 0.000471 0.000000
0.000052 0.000467 0.000000
0.000051 0.000477 0.000000
0.000047 0.000488 0.000000
0.000052 0.000491 0.000000
0.000057 0.000492 0.000000
0.000053 0.000498 0.000000
0.000909 0.000952 0.000000
0.001015 0.000951 0.000000
0.001027 0.000942 0.000000
0.001042 0.000922 0.000000
0.001049 0.000911 0.000000
0.001055 0.000908 0.000000
0.001051 0.000905 0.000000
0.001057 0.000904 0.000000
0.001065 0.000894 0.000000
0.001069 0.000897 0.000000
0.001069 0.000890 0.000000
0.001078 0.000886 0.000000
0.001083 0.000876 0.000000
0.001087 0.000887 0.000000
0.001092 0.000871 0.000000
0.001096 0.000867 0.000000
0.001097 0.000872 0.000000
0.001106 0.000862 0.000000
0.001109 0.000858 0.000000
0.001111 0.000853 0.000000
0.000054 0.000445 0.000000
0.000057 0.000450 0.000000
0.000052 0.000459 0.000000
0.000052 0.000463 0.000000
0.000059 0.000467 0.000000
0.000054 0.000473 0.000000
0.000057 0.000477 0.000000
0.000057 0.000481 0.000000
0.000052 0.000482 0.000000
0.000056 0.000487 0.000000
0.000056 0.000497 0.000000
0.000059 0.000496 0.000000
0.000931 0.000957 0.000000
0.001022 0.000956 0.000000
0.001019 0.000949 0.000000
[...]
POINT_DATA 11286
SCALARS density float 1
LOOKUP_TABLE default
4426.413739
4434.235736
4429.771157
4424.665992
4427.733672
4423.859889
4433.729605
4430.941208
4429.832795
4420.746412
4431.332991
4402.617189
4430.478770
4421.494242
4417.684793
4439.027835
4440.424068
4438.738110
4446.250633
4448.759494
4427.324515
4430.912645
4394.942774
4436.511702
4434.221558
4425.572154
4451.751955
4425.764227
4415.510096
4447.467277
4422.665009
4401.088770
4429.226097
4427.595404
4418.509782
4430.137637
4446.369056
4423.706787
4429.228455
4421.097597
4419.840011
4431.878882
4451.792227
4408.095809
4412.377551
4422.091645
4414.541493
4410.700243
4424.295459
4422.605424
4446.012578
4464.298114
4445.812156
4413.892707
4390.317020
4380.797805
4449.923367
4402.985346
4436.900015
4460.637649
4422.721580
4431.995992
4405.297804
4402.226209
4420.205760
4419.788827
4445.335795
4423.665105
4414.073216
4416.090866
4451.251136
4387.783547
4471.533060
4372.035247
4453.391000
4399.805202
4457.599935
4460.469406
4434.924537
4400.444009
4420.745596
4412.808917
4452.894926
4430.388316
4401.962093
4394.009743
4421.916243
4441.514274
4389.555582
4444.615424
4431.907862
4397.314955
4421.888757
4426.417681
4451.491616
4414.383229
4423.233474
4435.812317
4437.517892
4414.506979
4422.221870
4440.820245
4464.761546
4383.586669
4480.913521
4383.372461
4513.806426
4399.767203
4436.880962
4375.684656
4416.649264
4442.168629
4481.239549
4462.232571
4464.955158
4383.127142
4411.799246
4435.565576
4408.500547
4476.549171
4407.475746
4454.214254
4444.723059
4458.746411
4436.231381
4362.413085
4502.495195
4444.515282
4440.309993
4433.632177
4424.883331
4450.330003
4436.576201
4448.240594
4414.169481
4458.316657
4469.386052
4376.280691
4467.497199
4435.976764
4415.225272
4433.916174
4476.086654
4420.162902
4477.956837
4395.056351
4464.554171
4458.394280
4408.024459
4381.567044
4394.545587
4436.667734
4421.157199
4413.040007
4412.194680
4464.621516
4454.178339
4375.268228
4396.585750
4419.650002
4434.991323
4442.371475
4445.846541
4398.990591
4424.396201
4406.682417
4474.949923
4361.696168
4429.380510
4476.402605
4405.028373
4425.915762
4433.935872
4427.212303
4389.774956
4394.750121
4437.482310
4457.224932
4416.893073
4434.152633
4471.060319
4444.562839
4467.376582
4440.000524
4449.189918
4457.998915
4387.555878
4427.007363
4417.890368
4422.588421
4502.218751
4409.302381
4424.012857
4432.440276
4412.594712
4449.890057
4441.894095
4442.706102
4386.244652
4452.719604
4446.017587
4413.132917
4459.362922
4420.923901
4421.751407
4443.343755
4461.173224
4398.498092
4444.855281
4471.953757
4418.545108
4425.416130
4438.971776
4454.338818
4455.077488
4451.314524
4441.536545
4399.192370
4410.427478
4462.722062
4437.805813
4387.162402
4403.423859
4442.194606
4431.886369
4424.088386
4442.889713
4421.162864
4429.538453
4426.448809
4448.296811
4414.599998
4392.204003
4432.348031
4416.312789
4443.500711
4412.308990
4426.804607
4396.193917
4400.762499
4414.686696
4441.538532
4430.983245
4397.260565
4427.025645
4469.656085
4399.146444
4425.463918
4403.238338
4444.540116
4440.725518
4436.742562
4446.143168
4460.877795
4415.775048
4416.466885
4434.296404
4437.088761
4400.253250
4448.208349
4441.188359
4435.238402
4434.519978
4433.620415
4450.276842
4423.312482
4431.640309
4427.261494
4425.858646
4460.170823
4405.584602
4441.190312
4411.266863
4448.707053
4455.681447
4410.122217
4456.563612
4438.929524
4419.422684
4434.537433
4421.220020
4418.531823
4416.033177
4435.621748
4412.077975
4399.057684
4412.349470
4434.179828
4435.463909
4424.657745
4426.364100
4418.112298
4404.411598
4442.578046
4429.385871
4438.968771
4461.520335
4430.037909
4475.720373
4425.196691
4434.055975
4439.976842
4387.952348
4435.263531
4422.901385
4432.891875
4411.569363
4451.312246
4446.667108
4428.080591
4432.833811
4443.687519
4401.546635
4442.665115
4439.132370
4444.468335
4431.619534
4458.861119
4432.500800
4426.287893
4423.372199
4427.731021
4435.373988
4439.329784
4428.117870
4444.808481
4428.882887
4393.699103
4381.436256
4431.034055
4527.374520
4403.651432
4436.346804
4430.483805
4389.403503
4443.713752
4428.809963
4380.090956
4458.888227
4447.404184
4402.141922
4423.797459
4460.253232
4435.194737
4446.604666
4453.525933
4440.424113
4433.289674
4394.673301
4404.888415
4420.638090
4429.312582
4443.515342
4415.347995
4431.749863
4421.370841
4417.245449
4455.794805
4430.383544
4453.580928
4453.240559
4361.384143
4406.952337
4415.066304
4428.358280
4434.348188
4417.864982
4416.816007
4450.596573
4441.839506
4391.815856
4441.994441
4430.354141
4380.394637
4452.571843
4399.403593
4420.480902
4444.379984
4463.781732
4421.173110
4453.718960
4448.450118
4428.149218
4426.727627
4431.994650
4432.465633
4396.293721
4404.860345
4436.780929
4436.187862
4419.376032
4425.215636
4450.402564
4385.647846
4449.427109
4439.855326
4416.741104
4432.071119
4420.689413
4377.967107
4395.840397
4415.769235
4438.449377
4433.447140
4433.502437
4447.982079
4431.458409
4413.102175
4406.522760
4432.101398
4418.555697
4438.164437
4393.717345
4417.282957
4437.821332
4430.851927
4436.494082
4420.405278
4437.270440
4433.765345
4449.495216
4437.340957
4431.389126
4389.033755
4455.664352
4409.934683
4417.688110
4438.648676
4412.679311
4435.868641
4415.511786
4398.342271
4440.056328
4381.052422
4444.764799
4414.359238
4425.131625
4437.392386
4469.568234
4429.631693
4430.601032
4447.656097
4431.310090
4443.230633
4445.857944
4432.413458
4426.749454
4428.811123
4406.379698
4447.708413
4428.952934
4427.212629
4439.232874
4441.844725
4427.098167
4430.910557
4380.949120
4415.560814
4449.169057
4450.596013
4424.452502
4439.087349
4435.501241
4459.265452
4447.626586
4461.928475
4457.023170
4450.952976
4381.918180
4409.533132
4412.849967
4437.029685
4459.036844
4418.373015
4452.390985
4407.548279
4422.509291
4399.771876
4435.018691
4432.553169
4440.698869
4406.850706
4411.360629
4445.992314
4423.920890
4403.514939
4446.137282
4445.399359
4455.282186
4385.005318
4394.421008
4446.286698
4427.817248
4420.600196
4429.347219
4444.211915
4437.562899
4413.713539
4404.276055
4423.043747
4396.899898
4410.921727
4434.714450
4421.719230
4400.777033
4420.155075
4430.126178
4449.073674
4439.251832
4436.399979
4427.782815
4424.085683
4425.165132
4437.457881
4428.096502
4435.976400
4391.327123
4428.671106
4414.104439
4419.766288
4434.493448
4436.560543
4427.071251
4427.633275
4430.737321
4426.779317
4423.976201
4435.055747
4476.125096
4443.494270
4418.620005
4443.650426
4406.645919
4460.001534
4450.057214
4429.283016
4415.484419
4405.104077
4409.204010
4424.495356
4416.413121
4437.091631
4424.223462
4441.429075
4444.377438
4435.929448
4428.510146
4400.937779
4439.055892
4442.072630
4449.195864
4433.376283
4432.713648
4430.437689
4429.991398
4450.701002
4432.914281
4431.971865
4440.751501
4436.762766
4464.205507
4418.820746
4482.360283
4494.843232
4435.897301
4429.888738
4413.853872
4437.509096
4440.435950
4440.376963
4429.798022
4437.262261
4448.972010
4430.172410
4429.600506
4426.459854
4413.804766
4437.714705
4429.746765
4436.221780
4428.867376
4440.919443
4442.822921
4430.601846
4435.422359
4422.960155
4401.522738
4431.133713
4418.088733
4416.371197
4432.244077
4436.965108
4423.131599
4443.679505
4430.943996
4428.532468
4446.178105
4444.943378
4428.834724
4421.326533
4418.557086
4439.684463
4432.635716
4430.345644
4411.712995
4413.893142
4427.266552
4434.882018
4452.284388
4415.713529
4436.175389
4443.796842
4427.587790
4419.871632
4428.469641
4446.588891
4431.303829
4412.343024
4425.452949
4430.775658
4426.846555
4441.564774
4440.357221
4469.937100
4435.946067
4439.864191
4440.166349
4442.332989
4491.847245
4434.176346
4441.499176
4447.662517
4382.830888
4433.110891
4393.102688
4437.545993
4438.067700
4449.957923
4426.387408
4434.864006
4422.934599
4434.396731
4455.658592
4416.268060
4408.391709
4451.256843
4412.901102
4418.007165
4462.047695
4476.001817
4390.502887
4508.460243
4423.002690
4428.686362
4417.325637
4473.605485
4438.462479
4420.438301
4354.219148
4438.358407
4390.268971
4439.867331
4472.806642
4433.581134
4459.715092
4451.176372
4417.350553
4423.055553
4437.618527
4409.748915
4412.564294
4424.336524
4421.949765
4426.067604
4419.884317
4426.366210
4437.970238
4435.456882
4429.321669
4425.783947
4444.871722
4377.668256
4434.912122
4436.241497
4434.723047
4422.778815
4434.052062
4453.032476
4455.824499
4413.399377
4441.644366
4429.350000
4393.999366
4354.476490
4459.810510
4395.091000
4426.780289
4433.927446
4447.182274
4424.471803
4446.779072
4428.933575
4456.908668
4428.355360
4431.183376
4418.723508
4429.914794
4416.921077
4419.030118
4431.636910
4426.696299
4408.361150
4435.104779
4394.275764
4375.325837
4470.380015
4429.495700
4474.302146
4391.501971
4428.103256
4438.323247
4435.744841
4433.550975
4461.210702
4447.825743
4381.589711
4358.541045
4454.199246
4394.208406
4371.948923
4415.547051
4429.107987
4459.114384
4414.982479
4414.372460
4416.972026
4438.312679
4419.105612
4460.356125
4426.089953
4449.476193
4425.989148
4406.707158
4435.532619
4462.700274
4454.071010
4427.399502
4431.152143
4455.325741
4424.778286
4433.431347
4399.548840
4368.522719
4419.841009
4407.668642
4423.278658
4391.183215
4441.873232
4436.675227
4459.718480
4442.208451
4474.879452
4420.251602
4431.805055
4450.651860
4414.021875
4456.592493
4425.032892
4426.284410
4430.084101
4430.079904
4430.194522
4430.028399
4429.580009
4429.347101
4429.001884
4429.274374
4429.922125
4430.850871
4431.201375
4430.976912
4430.372860
4430.098088
4427.373165
4429.387900
4428.482134
4428.844675
4429.693391
4430.842453
4432.095558
4433.100511
4433.261669
4431.773275
4429.953281
4428.771986
4428.867976
4430.174703
4431.394004
4428.270067
4429.633614
4430.435158
4430.716397
4430.159657
4429.005123
4427.938056
4426.697910
4426.819077
4428.375993
4430.879266
4432.094959
4431.457389
4430.572046
4428.633970
4428.672602
4429.172561
4428.265915
4428.279110
4429.171785
4430.549105
4431.913954
4433.595897
4433.391366
4432.080848
4429.131534
4427.774207
4427.505736
4429.221256
4429.823936
4429.112592
4429.594474
4430.575474
4430.815718
4430.041710
4428.958400
4427.539155
4426.025424
4426.189029
4427.557930
4430.432382
4431.743419
4431.914174
4429.380138
4430.242839
4429.013888
4429.218767
4428.247158
4427.979734
4429.219271
4430.019609
4432.044481
4432.999182
4433.619953
4431.215160
4429.398792
4426.619432
4427.873714
4428.097495
4429.358579
4429.337525
4429.438679
4430.835952
4430.605276
4430.040227
4428.789149
4427.320013
4425.768157
4425.858467
4427.286816
4429.927936
4431.523933
4430.703140
4428.021887
4427.533033
4429.019864
4429.043409
4428.383973
4427.780748
4429.113514
4429.871345
4431.775262
4432.897308
4433.325921
4431.128166
4429.012428
4426.621984
4427.279991
4427.428869
4429.528009
4428.858096
4429.647082
4430.536172
4430.470424
4430.219070
4428.294188
4427.624915
4425.174042
4426.070479
4426.764433
4430.121538
4431.319978
4432.181763
4429.370170
4429.950820
4428.947094
4429.211411
4427.996016
4428.058702
4428.550895
4430.207355
4431.004723
4433.232639
4432.729836
4431.222072
4428.901839
4426.470796
4427.963772
4428.769438
4428.909063
4429.006248
4429.799889
4430.225917
4430.929085
4429.385446
4428.880370
4426.659173
4425.773559
4425.282156
4427.281361
4429.112962
4432.261087
4429.844253
4429.368992
4428.124201
4428.797903
4429.146168
4427.898237
4427.686837
4428.591851
4429.716357
4430.996331
4432.934199
4432.756768
4431.155945
4428.548544
4426.591718
4427.344474
4428.276748
4428.685674
4428.839699
4429.382366
4430.504071
4430.463705
4429.614000
4428.289776
4427.133725
4425.147185
4425.864569
4426.403751
4429.887846
4431.561733
4432.114580
4430.046833
4431.666207
4445.501064
4438.980561
4441.561167
4429.871035
4420.976932
4454.035646
4431.263842
4404.564176
4411.876774
4454.026262
4456.792058
4398.027785
4417.877280
4454.645648
4423.712491
4427.108990
4428.626655
4428.860802
4428.019842
4427.023677
4428.827970
4429.141351
4431.082774
4432.485688
4432.795716
4430.649850
4428.743768
4426.166666
4428.469831
4429.563522
4432.197109
4436.003145
4426.388279
4406.284704
4406.810359
4404.639381
4442.679601
4428.925653
4399.224312
4383.124308
4420.454155
4422.752500
4442.233405
4424.527841
4384.560331
4422.084265
4410.108638
4428.472900
4429.321332
4430.319222
4430.407879
4429.399914
4428.146399
4427.038494
4425.099133
4425.675266
4426.149046
4429.182669
4431.434206
4430.994603
4429.645656
4431.527512
4445.263876
4423.173738
4430.564355
4435.630068
4408.879656
4450.192026
4420.814389
4425.150326
4395.028694
4442.280908
4429.709127
4420.933551
4434.141823
4443.402796
4440.221054
4426.374642
4428.420139
4429.039290
4427.436355
4427.316893
4427.949153
4429.648615
4430.018239
4432.950904
4431.561839
4431.078893
4427.485444
4425.625485
4426.531695
4427.065281
4428.314662
4455.243526
4450.094931
4394.278835
4388.887657
4396.884514
4449.938072
4431.384068
4441.046092
4443.164596
4457.968377
4431.995489
4426.319381
4375.173494
4394.481456
4454.999251
4452.941027
4428.180842
4429.479330
4429.938782
4430.423947
4429.289464
4427.980451
4426.931720
4424.945051
4425.510231
4425.506957
4428.439122
4430.830454
4429.062943
4427.073763
4426.334884
4445.381638
4394.255418
4451.813513
4447.815399
4452.410524
4430.804546
4439.879739
4452.217738
4422.144788
4435.110089
4385.663976
4429.042217
4415.311194
4428.387147
4431.511532
4420.840213
4428.036225
4428.862809
4427.342204
4427.134399
4427.745246
4429.566044
4429.737191
4432.669562
4431.348817
4430.608845
4427.264540
4424.611223
4426.180342
4426.089675
4425.899747
4429.085034
4404.826211
4419.484067
4403.023781
4481.333987
4384.009113
4430.746809
4438.216459
4434.629409
4403.135489
4399.910161
4416.321799
4424.947948
4418.390024
4444.658952
4417.788340
4428.346165
4429.371535
4429.945232
4430.485794
4429.072129
4428.163264
4426.433892
4425.329118
4425.112719
4425.482065
4427.607067
4430.934915
4427.541235
4427.242930
4425.956771
4438.791916
4432.452395
4476.214918
4414.709347
4374.089551
4449.371607
4431.042311
4431.262894
4418.230827
4436.234173
4428.737569
4467.474210
4444.328027
4416.968774
4479.698290
4407.299919
4427.905222
4428.708944
4427.311617
4426.713605
4427.762739
4429.004138
4429.792551
4432.263332
4431.580573
4430.252731
4427.340266
4424.433209
4425.882388
4426.178850
4423.319738
4429.950291
4448.099605
4425.426886
4436.073543
4408.878988
4471.589826
4420.334885
4424.770124
4424.080532
4421.239138
4446.242789
4388.424965
4464.124318
4385.071666
4426.383630
4425.114843
4428.118523
4429.053969
4430.129432
4430.222789
4429.191018
4427.718495
4426.801484
4425.043799
4425.861231
4424.841082
4428.149494
4430.760424
4429.359864
4427.010204
4427.771808
4400.714839
4415.717923
4453.097554
4407.924133
4446.989737
4437.715927
4422.636349
4423.848695
4369.314027
4420.124102
4420.397542
4407.538961
4463.241198
4449.097169
4426.155605
4390.743297
4427.903488
4428.457273
4427.480852
4426.130349
4427.873595
4428.488518
4429.839525
4432.054835
4431.490246
4430.337990
4427.298265
4424.214018
4427.121361
4425.678634
4429.133386
4440.472063
4431.031417
4441.956784
4459.718790
4352.570036
4416.972066
4428.262790
4444.689603
4430.504363
4433.466143
4455.058232
4444.606020
4398.562813
4446.292518
4379.973981
4447.897682
4427.917435
4429.009029
4429.971649
4430.292805
4429.094854
4427.583834
4426.944705
4425.106349
4426.143625
4424.333681
4428.016123
4430.818301
4429.011532
4428.174814
4426.352894
4426.945861
4431.139844
4472.003426
4439.809863
4475.051861
4431.526540
4458.062841
4454.088162
4383.530140
4446.087287
4381.586057
4439.418223
4465.017053
4380.919358
4442.009359
4398.087080
4427.846934
4428.615045
4427.112474
4426.407593
4427.072957
4428.943436
4429.160311
4432.146741
4431.242902
4430.510093
4426.659701
4424.362011
4425.140310
4426.396511
4425.303768
4433.213819
4436.910578
4403.560953
4410.499530
4423.205914
4422.543198
4430.426080
4442.408676
4458.193885
4436.818282
4461.832275
4403.015269
4426.071038
4419.872078
4431.068458
4438.643545
4427.724247
4429.328875
4429.532348
4430.478966
4429.219499
4427.799055
4426.578459
4426.148085
4425.296557
4424.933473
4426.938355
4430.888800
4427.887663
4426.952113
4425.919060
4415.103379
4445.788311
4405.491087
4425.909590
4436.395216
4436.176048
4444.423122
4432.624165
4426.480986
4427.627550
4398.737277
4458.605406
4407.972739
4412.711445
4500.468712
4444.211969
4427.568639
4429.080786
4426.452960
4427.095502
4426.169876
4429.785608
4428.303865
4432.592024
4430.929548
4430.498066
4426.443086
4424.472219
4424.693885
4425.698839
4425.565675
4421.858156
4407.753020
4427.045501
4447.907841
4425.250766
4416.656331
4425.591972
4424.994008
4419.822424
4450.414855
4433.025650
4446.307399
4407.105211
4421.306119
4403.984948
4453.023650
4427.521094
4429.774235
4429.018935
4431.299137
4428.561390
4428.487434
4425.654175
4426.935762
4424.883654
4425.332949
4426.509256
4430.837023
4427.961998
4428.172902
4424.450534
4429.732823
4436.296838
4417.069445
4447.018691
4433.407497
4438.462613
4417.563058
4437.305307
4434.022755
4428.763382
4398.215561
4435.794007
4432.774160
4442.437412
4405.674203
4398.054387
4427.711405
4428.817320
4426.859011
4426.335406
4426.805775
4428.639604
4428.744324
4432.770206
4430.695630
4431.156399
4426.388995
4425.294705
4423.961706
4426.112230
4424.678222
4433.413414
4423.348547
4436.201397
4422.203305
4428.187822
4450.758812
4421.009711
4425.778054
4417.234686
4462.350603
4429.594015
4427.764304
4428.721551
4409.916190
4435.040366
4429.666738
4427.897442
4429.176170
4429.842788
4430.916851
4428.669346
4428.463885
4426.401726
4426.321886
4426.783592
4424.637791
4426.766834
4430.741232
4429.735619
4427.208869
4425.469673
4406.668986
4410.647189
4429.575285
4432.614320
4388.948762
4427.735727
4442.544676
4428.225713
4456.772830
4423.974813
4448.418451
4407.351200
4423.206477
4422.688053
4420.401255
4412.989146
4428.066873
4428.699489
4427.061136
4425.908181
4426.885560
4427.699847
4429.652625
4432.024408
4431.135023
4430.615555
4427.446482
4423.481656
4424.938271
4425.122647
4425.468645
4442.721229
4438.418074
4445.642514
4453.408313
4390.576354
4414.285559
4442.107237
4382.213257
4466.404998
4463.198404
4443.310816
4373.297236
4439.059350
4437.954167
4414.407022
4429.868954
4427.966088
4428.565771
4430.360283
4429.842105
4429.810722
4427.271414
4427.654565
4425.450950
4427.583750
4423.705704
4426.486573
4431.462115
4428.256749
4425.982559
4427.927976
4441.803673
4428.587651
4418.784212
4455.497891
4387.911595
4434.486942
4429.950657
4435.333733
4446.850167
4445.074574
4463.772349
4403.997785
4421.013300
4426.972472
4365.084549
4433.680623
4427.861922
4429.024639
4426.881295
4426.435074
4425.812720
4428.928448
4428.829571
4432.559347
4431.516942
4431.505029
4426.912241
4423.950777
4423.604493
4424.097841
4424.776971
4426.679228
4427.016705
4418.315091
4381.004494
4431.414626
4444.069611
4440.720141
4427.024420
4411.678109
4453.739960
4401.899975
4417.139049
4398.035949
4433.417158
4410.390335
4446.338306
4427.631643
4429.681876
4428.619657
4431.833279
4429.128730
4428.864994
4426.966052
4428.019222
4425.953239
4424.466218
4426.934035
4430.312777
4427.861273
4427.316669
4423.190788
4423.732212
4423.520307
4427.043834
4429.950971
4456.118626
4412.921827
4417.548042
4473.963918
4405.777901
4454.412873
4401.882541
4385.643972
4477.623271
4421.891034
4568.237446
4410.105880
4427.642016
4429.043013
4427.478131
4426.207783
4426.245652
4429.004561
4427.881579
4433.831942
4430.346965
4431.124208
4426.203230
4425.735966
4422.670414
4425.543005
4422.359485
4438.444775
4439.060964
4428.493938
4416.562136
4464.057514
4461.059944
4439.375121
4438.100117
4464.006345
4449.080496
4441.932154
4450.054230
4447.059890
4435.440195
4273.167283
4427.479694
4428.040572
4430.032830
4428.720987
4432.513281
4428.218243
4429.533949
4425.352477
4428.452067
4424.023427
4425.942251
4425.404157
4429.874195
4426.862762
4427.318442
4420.983346
4424.317909
4399.907031
4408.244798
4426.432725
4448.938055
4416.580052
4441.248964
4443.002703
4439.135607
4415.441505
4410.876689
4436.988244
4451.042661
4446.981301
4379.593798
4397.529998