# vtk DataFile Version 2.0
mfree iwf
ASCII

DATASET UNSTRUCTURED_GRID
POINTS 10518 float
0.000000 0.000445 0.000000
0.000000 0.000450 0.000000
0.000000 0.000455 0.000000
0.000000 0.000460 0.000000
0.000000 0.000465 0.000000
0.000000 0.000470 0.000000
0.000000 0.000475 0.000000
0.000000 0.000480 0.000000
0.000000 0.000485 0.000000
0.000000 0.000490 0.000000
-0.000000 0.000496 0.000000
0.000002 0.000500 0.000000
0.000705 0.000881 0.000000
0.000713 0.000884 0.000000
0.000760 0.000888 0.000000
0.000766 0.000887 0.000000
0.000765 0.000887 0.000000
0.000773 0.000888 0.000000
0.000780 0.000887 0.000000
0.000775 0.000887 0.000000
0.000790 0.000887 0.000000
0.000817 0.000886 0.000000
0.000823 0.000884 0.000000
0.000827 0.000882 0.000000
0.000832 0.000881 0.000000
0.000837 0.000879 0.000000
0.000841 0.000877 0.000000
0.000846 0.000874 0.000000
0.000849 0.000873 0.000000
0.000856 0.000870 0.000000
0.000861 0.000868 0.000000
0.000885 0.000862 0.000000
0.000005 0.000445 0.000000
0.000005 0.000450 0.000000
0.000005 0.000455 0.000000
0.000005 0.000460 0.000000
0.000005 0.000465 0.000000
0.000005 0.000470 0.000000
0.000005 0.000475 0.000000
0.000005 0.000480 0.000000
0.000005 0.000485 0.000000
0.000006 0.000489 0.000000
0.000003 0.000496 0.000000
0.000006 0.000499 0.000000
0.000755 0.000887 0.000000
0.000763 0.000880 0.000000
0.000797 0.000885 0.000000
0.000804 0.000885 0.000000
0.000809 0.000885 0.000000
0.000812 0.000884 0.000000
0.000815 0.000883 0.000000
0.000819 0.000880 0.000000
0.000823 0.000879 0.000000
0.000830 0.000877 0.000000
0.000836 0.000874 0.000000
0.000842 0.000871 0.000000
0.000847 0.000868 0.000000
0.000856 0.000866 0.000000
0.000859 0.000863 0.000000
0.000865 0.000861 0.000000
0.000875 0.000862 0.000000
0.000878 0.000861 0.000000
0.000872 0.000863 0.000000
0.000883 0.000860 0.000000
0.000010 0.000445 0.000000
0.000010 0.000450 0.000000
0.000010 0.000455 0.000000
0.000010 0.000460 0.000000
0.000010 0.000465 0.000000
0.000011 0.000470 0.000000
0.000009 0.000475 0.000000
0.000011 0.000479 0.000000
0.000009 0.000486 0.000000
0.000012 0.000490 0.000000
0.000009 0.000497 0.000000
0.000011 0.000498 0.000000
0.000757 0.000883 0.000000
0.000767 0.000879 0.000000
0.000783 0.000883 0.000000
0.000790 0.000884 0.000000
0.000795 0.000884 0.000000
0.000800 0.000884 0.000000
0.000794 0.000878 0.000000
0.000804 0.000877 0.000000
0.000809 0.000878 0.000000
0.000815 0.000878 0.000000
0.000824 0.000875 0.000000
0.000829 0.000873 0.000000
0.000831 0.000869 0.000000
0.000835 0.000866 0.000000
0.000842 0.000867 0.000000
0.000852 0.000865 0.000000
0.000868 0.000861 0.000000
0.000870 0.000860 0.000000
0.000878 0.000856 0.000000
0.000881 0.000852 0.000000
0.000015 0.000445 0.000000
0.000016 0.000450 0.000000
0.000014 0.000456 0.000000
0.000016 0.000460 0.000000
0.000015 0.000465 0.000000
0.000016 0.000470 0.000000
0.000014 0.000476 0.000000
0.000016 0.000480 0.000000
0.000014 0.000485 0.000000
0.000016 0.000489 0.000000
0.000014 0.000495 0.000000
0.000016 0.000498 0.000000
0.000025 0.000500 0.000000
0.000770 0.000881 0.000000
0.000785 0.000882 0.000000
0.000784 0.000877 0.000000
0.000798 0.000878 0.000000
0.000805 0.000883 0.000000
0.000811 0.000874 0.000000
0.000817 0.000872 0.000000
0.000815 0.000867 0.000000
0.000824 0.000871 0.000000
0.000835 0.000861 0.000000
0.000837 0.000870 0.000000
0.000844 0.000861 0.000000
0.000849 0.000863 0.000000
0.000851 0.000859 0.000000
0.000856 0.000859 0.000000
0.000861 0.000856 0.000000
0.000867 0.000855 0.000000
0.000871 0.000853 0.000000
0.000880 0.000849 0.000000
0.000020 0.000445 0.000000
0.000021 0.000450 0.000000
0.000019 0.000456 0.000000
0.000022 0.000459 0.000000
0.000019 0.000467 0.000000
0.000024 0.000468 0.000000
0.000018 0.000474 0.000000
0.000022 0.000479 0.000000
0.000019 0.000486 0.000000
0.000021 0.000491 0.000000
0.000021 0.000497 0.000000
0.000022 0.000499 0.000000
0.000039 0.000500 0.000000
0.000771 0.000871 0.000000
0.000776 0.000877 0.000000
0.000784 0.000872 0.000000
0.000789 0.000879 0.000000
0.000800 0.000873 0.000000
0.000805 0.000867 0.000000
0.000818 0.000871 0.000000
0.000809 0.000870 0.000000
0.000823 0.000861 0.000000
0.000827 0.000857 0.000000
0.000832 0.000854 0.000000
0.000838 0.000857 0.000000
0.000846 0.000856 0.000000
0.000853 0.000851 0.000000
0.000860 0.000851 0.000000
0.000863 0.000851 0.000000
0.000872 0.000848 0.000000
0.000875 0.000851 0.000000
0.000879 0.000845 0.000000
0.000025 0.000445 0.000000
0.000026 0.000450 0.000000
0.000024 0.000455 0.000000
0.000026 0.000462 0.000000
0.000022 0.000464 0.000000
0.000025 0.000472 0.000000
0.000023 0.000476 0.000000
0.000027 0.000481 0.000000
0.000023 0.000485 0.000000
0.000026 0.000488 0.000000
0.000026 0.000492 0.000000
0.000027 0.000500 0.000000
0.000734 0.000886 0.000000
0.000774 0.000879 0.000000
0.000778 0.000880 0.000000
0.000794 0.000873 0.000000
0.000791 0.000869 0.000000
0.000806 0.000873 0.000000
0.000810 0.000865 0.000000
0.000800 0.000869 0.000000
0.000813 0.000859 0.000000
0.000823 0.000866 0.000000
0.000830 0.000863 0.000000
0.000827 0.000866 0.000000
0.000840 0.000863 0.000000
0.000843 0.000856 0.000000
0.000856 0.000854 0.000000
0.000850 0.000853 0.000000
0.000868 0.000849 0.000000
0.000861 0.000846 0.000000
0.000872 0.000844 0.000000
0.000876 0.000840 0.000000
0.000030 0.000445 0.000000
0.000031 0.000450 0.000000
0.000030 0.000456 0.000000
0.000030 0.000460 0.000000
0.000032 0.000464 0.000000
0.000028 0.000469 0.000000
0.000032 0.000472 0.000000
0.000031 0.000477 0.000000
0.000031 0.000486 0.000000
0.000031 0.000492 0.000000
0.000033 0.000497 0.000000
0.000030 0.000499 0.000000
0.000049 0.000500 0.000000
0.000765 0.000874 0.000000
0.000781 0.000869 0.000000
0.000789 0.000873 0.000000
0.000788 0.000867 0.000000
0.000796 0.000867 0.000000
0.000807 0.000861 0.000000
0.000819 0.000863 0.000000
0.000814 0.000863 0.000000
0.000821 0.000856 0.000000
0.000831 0.000859 0.000000
0.000841 0.000848 0.000000
0.000838 0.000853 0.000000
0.000846 0.000850 0.000000
0.000849 0.000845 0.000000
0.000853 0.000847 0.000000
0.000860 0.000841 0.000000
0.000866 0.000843 0.000000
0.000871 0.000840 0.000000
0.000875 0.000836 0.000000
0.000035 0.000445 0.000000
0.000035 0.000450 0.000000
0.000034 0.000456 0.000000
0.000039 0.000455 0.000000
0.000034 0.000467 0.000000
0.000037 0.000472 0.000000
0.000032 0.000479 0.000000
0.000042 0.000479 0.000000
0.000035 0.000483 0.000000
0.000034 0.000488 0.000000
0.000037 0.000491 0.000000
0.000036 0.000498 0.000000
0.000693 0.000876 0.000000
0.000730 0.000886 0.000000
0.000775 0.000869 0.000000
0.000783 0.000864 0.000000
0.000797 0.000862 0.000000
0.000792 0.000857 0.000000
0.000802 0.000863 0.000000
0.000806 0.000855 0.000000
0.000816 0.000856 0.000000
0.000815 0.000851 0.000000
0.000823 0.000847 0.000000
0.000833 0.000846 0.000000
0.000836 0.000849 0.000000
0.000843 0.000842 0.000000
0.000856 0.000844 0.000000
0.000852 0.000832 0.000000
0.000862 0.000838 0.000000
0.000865 0.000837 0.000000
0.000869 0.000836 0.000000
0.000873 0.000831 0.000000
0.000040 0.000445 0.000000
0.000041 0.000450 0.000000
0.000036 0.000462 0.000000
0.000040 0.000458 0.000000
0.000041 0.000462 0.000000
0.000040 0.000468 0.000000
0.000041 0.000472 0.000000
0.000037 0.000477 0.000000
0.000041 0.000488 0.000000
0.000042 0.000491 0.000000
0.000041 0.000497 0.000000
0.000044 0.000498 0.000000
0.000577 0.000770 0.000000
0.000760 0.000879 0.000000
0.000766 0.000869 0.000000
0.000781 0.000858 0.000000
0.000792 0.000863 0.000000
0.000803 0.000857 0.000000
0.000796 0.000858 0.000000
0.000811 0.000855 0.000000
0.000821 0.000852 0.000000
0.000826 0.000850 0.000000
0.000818 0.000847 0.000000
0.000829 0.000843 0.000000
0.000836 0.000843 0.000000
0.000845 0.000837 0.000000
0.000844 0.000846 0.000000
0.000851 0.000840 0.000000
0.000855 0.000838 0.000000
0.000862 0.000832 0.000000
0.000867 0.000831 0.000000
0.000871 0.000827 0.000000
0.000044 0.000445 0.000000
0.000047 0.000450 0.000000
0.000044 0.000454 0.000000
0.000047 0.000461 0.000000
0.000045 0.000468 0.000000
0.000046 0.000473 0.000000
0.000046 0.000479 0.000000
0.000040 0.000483 0.000000
0.000052 0.000486 0.000000
0.000045 0.000483 0.000000
0.000048 0.000493 0.000000
0.000050 0.000498 0.000000
0.000581 0.000777 0.000000
0.000751 0.000886 0.000000
0.000779 0.000873 0.000000
0.000788 0.000862 0.000000
0.000786 0.000858 0.000000
0.000800 0.000853 0.000000
0.000806 0.000849 0.000000
0.000810 0.000851 0.000000
0.000814 0.000844 0.000000
0.000825 0.000841 0.000000
0.000829 0.000850 0.000000
0.000839 0.000840 0.000000
0.000831 0.000839 0.000000
0.000840 0.000834 0.000000
0.000849 0.000836 0.000000
0.000856 0.000833 0.000000
0.000856 0.000828 0.000000
0.000860 0.000829 0.000000
0.000865 0.000827 0.000000
0.000869 0.000822 0.000000
0.000049 0.000445 0.000000
0.000052 0.000450 0.000000
0.000048 0.000456 0.000000
0.000054 0.000458 0.000000
0.000047 0.000464 0.000000
0.000051 0.000472 0.000000
0.000052 0.000467 0.000000
0.000051 0.000477 0.000000
0.000047 0.000488 0.000000
0.000052 0.000491 0.000000
0.000058 0.000492 0.000000
0.000053 0.000498 0.000000
0.000643 0.000847 0.000000
0.000745 0.000880 0.000000
0.000757 0.000874 0.000000
0.000779 0.000862 0.000000
0.000790 0.000853 0.000000
0.000795 0.000852 0.000000
0.000797 0.000847 0.000000
0.000801 0.000849 0.000000
0.000812 0.000839 0.000000
0.000810 0.000846 0.000000
0.000817 0.000839 0.000000
0.000826 0.000837 0.000000
0.000833 0.000834 0.000000
0.000836 0.000837 0.000000
0.000844 0.000832 0.000000
0.000848 0.000825 0.000000
0.000848 0.000829 0.000000
0.000860 0.000823 0.000000
0.000864 0.000822 0.000000
0.000867 0.000817 0.000000
0.000054 0.000445 0.000000
0.000057 0.000450 0.000000
0.000053 0.000455 0.000000
0.000053 0.000463 0.000000
0.000059 0.000467 0.000000
0.000053 0.000472 0.000000
0.000057 0.000477 0.000000
0.000057 0.000480 0.000000
0.000052 0.000483 0.000000
0.000057 0.000486 0.000000
0.000056 0.000497 0.000000
0.000059 0.000496 0.000000
0.000663 0.000859 0.000000
0.000750 0.000887 0.000000
0.000750 0.000879 0.000000
[...]
POINT_DATA 10518
SCALARS density float 1
LOOKUP_TABLE default
4427.687257
4428.699532
4431.164685
4426.378663
4431.782420
4428.550182
4429.037970
4427.623374
4436.196115
4421.642245
4430.599979
4402.669802
4419.901334
4433.887493
4426.130988
4429.436025
4439.401975
4429.381995
4441.212089
4440.440974
4424.970181
4426.386023
4406.423005
4446.344697
4429.599500
4416.671023
4440.458668
4441.451093
4414.540734
4446.426174
4424.768226
4415.455742
4429.186397
4427.998340
4423.788776
4431.162085
4434.167912
4420.816132
4431.826741
4427.133729
4412.405149
4424.270457
4452.477279
4408.523494
4419.365422
4427.393030
4413.827835
4424.343054
4416.595329
4428.618425
4452.438741
4440.637184
4435.581579
4397.470943
4428.352183
4383.573996
4426.708933
4398.148048
4423.758345
4463.685003
4417.586746
4430.825271
4402.522201
4403.796758
4424.469864
4428.900342
4433.090954
4423.741337
4421.607599
4418.410205
4453.024026
4386.921732
4477.813216
4369.637773
4455.673020
4397.245664
4439.054263
4437.924303
4428.590639
4405.885150
4427.229153
4407.346191
4463.644561
4408.904563
4411.696714
4394.892978
4412.381940
4467.875043
4413.345088
4416.428667
4475.419996
4420.161627
4426.301939
4428.372244
4462.104234
4412.474462
4425.317406
4436.426776
4444.165293
4418.519683
4450.072898
4408.867986
4468.523630
4381.658390
4480.327371
4382.536039
4519.702441
4402.888258
4437.053758
4406.434543
4423.951267
4429.210427
4462.657976
4458.638909
4414.331700
4448.805826
4397.574575
4430.252259
4435.693867
4444.445102
4391.080817
4450.511088
4440.702002
4463.691130
4442.383248
4354.287036
4488.925129
4453.992439
4436.241461
4432.739540
4453.329378
4417.129242
4425.137307
4448.999265
4417.791108
4455.336375
4472.131594
4368.793958
4468.714246
4435.453254
4417.748618
4419.966747
4441.039816
4441.787900
4466.346643
4429.556807
4423.855454
4439.133177
4460.996640
4415.697736
4428.386172
4396.579083
4442.722017
4431.051616
4435.719713
4452.338292
4473.862199
4419.696226
4358.498803
4416.960346
4430.220840
4427.337146
4431.958633
4423.086556
4432.424759
4405.049984
4477.946217
4347.359402
4432.265215
4477.418543
4408.518647
4428.164130
4425.479457
4431.758453
4415.625296
4396.818434
4475.864382
4429.801155
4413.200963
4424.822394
4433.708787
4423.332506
4444.794719
4436.048512
4426.702672
4448.879977
4379.107217
4437.211197
4440.446394
4397.290184
4459.680737
4409.010210
4426.895591
4430.864541
4423.274755
4434.543215
4424.318096
4439.913900
4395.466475
4456.779678
4441.780863
4407.372490
4456.858045
4423.026245
4422.420548
4409.774602
4442.257539
4412.038338
4404.306389
4441.303824
4446.121945
4444.627334
4453.474961
4437.728746
4440.881344
4433.876691
4430.355958
4388.330082
4412.579393
4444.627630
4457.587825
4390.746033
4433.498593
4437.658803
4433.260997
4424.571764
4439.438493
4443.630338
4447.006544
4429.995837
4453.275496
4439.423844
4417.994993
4422.091600
4420.235638
4443.595356
4418.933260
4417.793748
4431.752529
4421.252328
4452.804068
4443.688953
4431.885618
4428.513037
4419.843416
4426.082421
4407.268603
4447.087548
4414.634818
4426.959455
4421.257952
4451.433325
4443.970049
4443.877048
4408.774968
4416.263434
4431.327946
4425.101440
4421.635567
4440.887016
4416.195788
4436.676690
4441.857748
4413.571153
4450.889585
4430.666437
4432.038254
4422.071219
4428.792957
4435.754428
4397.312274
4414.054265
4391.333758
4432.046297
4415.973470
4428.073005
4435.862193
4433.101894
4445.167434
4391.526737
4421.277605
4402.818042
4446.021383
4431.127905
4423.120324
4419.556137
4426.000210
4438.925362
4435.621873
4416.280125
4419.476809
4430.816821
4400.079919
4425.593886
4438.292206
4419.532912
4448.785233
4423.563834
4467.887696
4432.334939
4435.730030
4438.319192
4388.746939
4464.906583
4419.912341
4432.218729
4407.712087
4450.619039
4414.870863
4467.778600
4454.430563
4438.128410
4445.215284
4437.711358
4462.075112
4433.093385
4411.353685
4448.750628
4418.960942
4430.586377
4429.817617
4421.802092
4406.981598
4446.240973
4461.637192
4462.770054
4408.608758
4377.831391
4381.447438
4428.632481
4519.805322
4406.667847
4438.650694
4453.716721
4418.533245
4455.909433
4448.981187
4418.685670
4436.648594
4447.844166
4431.998541
4430.150704
4439.225000
4421.003634
4407.107823
4452.158721
4453.352142
4450.535560
4392.911062
4412.335730
4427.258892
4427.762860
4438.108079
4432.109013
4446.369725
4393.899190
4452.901919
4458.894700
4424.390539
4461.973691
4477.626201
4354.286765
4412.494077
4400.632270
4432.146663
4429.926570
4413.751888
4423.054203
4445.125450
4411.821380
4405.653518
4424.422201
4431.513414
4421.580431
4406.151372
4396.630619
4444.551268
4443.510485
4449.879702
4433.906099
4414.730894
4426.126990
4439.460199
4431.228843
4421.314841
4430.853256
4415.728071
4386.151919
4420.450891
4428.122998
4400.207694
4427.953225
4439.147941
4424.966145
4435.448600
4426.795629
4415.113391
4432.675570
4453.013341
4385.827819
4395.778558
4443.853430
4421.653099
4447.127278
4439.537662
4409.801609
4450.910564
4439.074858
4379.330713
4435.101687
4424.788105
4439.888986
4416.638732
4451.812457
4418.572991
4438.355252
4440.656762
4421.033756
4433.999442
4439.296226
4455.891388
4461.291973
4433.723153
4384.799337
4462.101203
4380.042789
4470.497687
4426.979320
4417.015834
4427.325965
4396.334641
4409.816241
4437.429353
4410.441034
4434.584476
4417.166653
4399.601168
4450.592453
4431.638471
4425.345072
4414.837939
4427.436833
4428.101355
4448.856345
4418.304203
4451.490248
4411.032568
4430.456267
4431.924825
4425.726601
4379.038998
4450.592138
4449.116359
4430.169484
4422.043353
4443.203603
4417.427828
4407.575924
4439.435063
4453.975211
4425.502321
4424.735561
4428.519261
4462.322917
4455.848526
4437.287787
4452.526705
4463.652358
4360.897126
4439.131449
4443.148761
4442.166304
4436.575267
4416.603164
4429.193183
4413.247185
4398.813143
4407.728467
4438.162172
4434.240566
4436.366421
4429.870110
4464.479181
4429.130650
4420.654628
4402.056414
4466.729203
4438.663482
4455.286870
4356.450388
4399.319389
4454.330055
4432.241043
4412.478229
4421.621904
4456.948318
4443.066807
4446.682270
4403.995581
4438.038538
4441.279853
4424.994441
4438.026938
4454.220163
4396.586797
4440.180137
4417.259275
4438.146055
4437.951385
4439.934621
4423.197110
4421.863807
4424.163939
4417.055134
4442.937879
4445.029270
4405.282938
4448.746929
4366.653166
4484.853010
4439.986599
4492.356219
4426.458277
4425.525279
4428.478944
4419.332155
4432.951431
4429.365263
4456.245664
4445.998332
4438.865835
4443.947930
4428.614654
4421.243929
4451.397363
4420.022309
4427.005373
4411.980600
4422.390035
4452.904235
4405.458124
4444.505485
4419.814685
4443.448642
4443.317726
4440.546710
4405.659224
4437.658620
4423.262126
4405.036013
4400.968037
4409.224146
4428.220739
4367.333374
4439.020996
4472.983888
4428.491962
4430.069739
4444.340465
4441.352345
4436.772536
4440.030572
4469.996187
4473.959409
4417.506802
4451.765863
4441.583005
4448.046448
4420.284589
4437.915649
4431.787134
4403.529385
4442.205037
4441.418195
4421.792230
4428.144428
4411.996614
4427.271812
4413.596595
4452.099405
4467.147920
4456.205502
4441.228549
4452.100645
4440.982558
4404.142195
4394.221993
4431.348610
4414.523263
4417.013923
4426.905633
4432.342943
4437.757067
4428.781733
4447.383996
4433.894835
4434.022049
4435.500346
4411.331045
4413.920960
4424.097306
4442.464400
4439.488480
4440.625933
4446.981765
4416.534601
4429.006186
4423.573165
4445.580501
4411.958200
4438.523446
4446.531371
4396.978198
4404.775046
4422.142573
4390.810940
4454.324854
4457.975793
4430.913302
4431.951026
4433.944698
4436.440129
4443.624728
4457.026044
4457.695870
4428.494322
4411.300178
4425.360350
4492.808226
4414.511652
4440.910715
4435.865952
4448.464718
4414.753631
4409.496496
4428.983507
4402.402014
4440.542761
4438.926740
4432.567001
4425.757915
4417.657516
4433.981157
4403.310338
4429.760451
4403.869368
4442.010591
4414.909105
4444.276393
4491.478058
4400.994896
4494.741024
4428.190359
4416.284209
4434.282490
4466.970985
4442.186227
4438.937328
4417.192602
4438.825906
4411.914864
4453.612722
4469.701045
4441.579584
4442.645397
4424.710518
4444.324183
4453.298563
4454.965725
4432.289915
4406.755159
4433.552800
4434.217870
4428.912958
4440.090209
4421.526062
4433.961987
4428.006920
4445.879541
4406.125066
4434.590830
4386.038644
4437.232491
4432.496232
4422.942739
4423.835061
4425.237124
4442.833344
4453.642606
4433.417430
4431.537924
4443.464119
4402.472537
4351.710978
4427.598381
4433.222354
4463.189102
4437.630527
4435.372836
4402.506093
4429.896400
4418.698232
4431.043260
4438.044527
4416.558659
4439.956926
4425.360340
4416.924887
4429.619015
4431.000580
4422.678359
4405.693823
4447.609348
4412.168478
4391.154640
4462.855612
4427.918075
4431.911876
4392.367909
4457.022446
4457.359106
4426.214303
4439.885842
4418.692885
4426.681128
4384.094962
4371.139727
4429.195135
4368.997802
4379.999707
4441.505465
4427.970652
4447.152764
4412.111454
4423.503731
4415.981416
4439.486424
4407.256357
4428.436474
4440.880628
4431.191544
4424.617338
4403.108623
4454.042884
4463.465512
4447.738192
4423.094375
4424.863666
4437.319081
4442.207041
4407.996579
4389.047283
4374.725445
4439.714293
4412.686590
4452.192531
4425.569067
4443.058493
4437.330240
4447.174596
4469.494869
4471.444735
4444.527629
4418.217153
4446.189317
4416.401052
4459.618856
4418.996597
4424.270960
4429.596409
4429.318135
4429.480255
4429.518866
4429.394087
4429.505708
4429.570819
4430.072715
4430.607200
4431.207894
4431.237668
4431.006534
4430.686922
4430.116345
4426.194700
4429.222614
4429.239255
4429.973998
4430.635385
4431.404818
4431.976396
4432.134882
4431.799426
4430.531921
4429.684493
4429.469663
4429.973661
4430.668765
4430.947509
4427.491282
4428.918492
4428.839040
4428.819266
4428.852525
4428.052549
4428.094840
4427.842336
4428.756523
4430.131775
4431.609410
4431.592382
4430.747572
4430.308717
4428.954740
4428.156844
4428.999457
4429.347706
4429.572138
4430.552931
4431.123154
4432.048361
4432.080204
4431.695111
4430.085956
4428.676394
4428.399455
4428.767568
4429.379920
4430.276998
4428.662232
4428.988388
4429.000305
4428.772406
4428.524073
4427.799041
4427.560713
4427.114546
4428.303635
4429.265673
4431.463353
4430.832906
4431.011033
4428.642147
4429.359214
4428.743703
4429.139461
4429.399210
4429.334803
4430.576638
4430.678401
4431.995621
4431.643750
4431.521654
4429.462756
4428.496250
4427.386859
4428.914262
4428.089650
4429.236266
4428.777519
4428.979619
4429.151138
4428.607836
4428.420736
4427.583447
4427.254398
4426.795224
4427.800274
4429.131496
4430.684866
4430.926590
4429.588568
4427.989425
4428.245622
4428.828239
4429.199161
4429.273542
4429.385086
4430.236380
4430.662511
4431.592097
4431.579906
4431.132761
4429.261358
4428.248531
4427.284201
4428.610950
4428.658907
4428.634539
4428.489893
4429.018754
4429.018829
4428.370900
4428.455809
4427.195190
4427.249145
4426.245139
4427.715587
4428.645148
4430.721888
4430.745250
4430.835036
4429.555967
4431.370736
4428.683630
4429.120496
4429.168343
4429.293066
4430.002237
4430.560500
4431.215116
4431.463431
4430.840297
4428.934381
4428.274564
4427.023103
4429.423749
4428.722926
4431.351250
4428.388282
4429.125001
4428.682695
4428.515070
4427.956781
4427.260389
4426.736019
4426.074618
4427.238801
4428.543239
4429.899110
4430.717236
4429.295403
4428.558457
4427.057779
4428.455048
4429.124135
4428.900968
4429.167178
4429.762198
4430.355168
4430.810891
4431.522175
4430.374402
4428.882044
4427.706716
4426.614039
4427.664454
4427.996412
4427.501706
4428.384216
4428.913425
4428.685980
4428.390488
4427.681060
4427.164169
4426.531795
4425.768925
4426.995782
4428.066216
4429.575329
4430.260731
4429.623156
4428.134618
4430.098712
4464.551964
4449.071933
4425.119913
4450.524408
4405.685053
4462.612862
4431.961979
4430.229230
4390.765635
4449.373722
4426.800039
4401.908492
4432.933055
4463.292183
4423.082828
4427.835341
4428.280560
4428.880927
4428.864589
4428.677476
4429.867144
4429.802404
4430.914362
4431.128422
4430.289148
4428.362083
4427.443306
4426.194638
4427.932111
4428.459036
4430.284398
4440.597065
4400.744123
4400.014098
4395.335052
4402.463439
4443.982826
4434.596626
4373.025981
4416.000511
4403.560234
4436.407391
4426.135765
4441.916143
4453.230989
4417.663499
4397.520763
4427.860909
4428.695820
4428.656029
4427.932478
4427.769962
4426.608142
4426.646066
4425.176730
4426.711704
4427.388762
4429.262645
4429.326666
4429.077334
4427.875749
4428.994455
4437.418934
4442.801075
4429.190399
4443.900845
4401.392535
4443.543075
4416.603340
4414.257211
4405.740514
4425.470243
4439.210680
4418.322429
4442.238378
4426.443409
4452.966287
4435.286187
4428.086870
4428.682128
4428.597517
4428.547016
4429.361570
4429.721300
4430.435209
4430.994059
4429.934145
4427.891957
4427.054435
4425.649816
4426.962761
4425.651780
4429.354016
4417.638323
4398.873680
4410.659413
4396.481908
4407.871642
4446.589746
4428.429990
4441.160544
4450.260829
4439.176929
4424.337336
4431.224570
4378.129097
4392.778492
4419.394908
4449.807715
4427.645999
4428.532505
4428.613540
4427.410604
4427.905844
4426.069444
4426.721866
4424.773038
4426.302870
4427.109390
4428.575241
4428.430772
4428.035041
4425.099241
4424.137597
4436.562195
4454.620731
4438.296208
4455.081518
4439.301612
4430.300121
4445.067666
4428.350160
4430.856852
4420.790790
4413.825889
4439.544836
4413.031874
4444.990550
4423.409649
4420.744938
4427.683589
4428.635657
4428.254115
4428.588736
4428.946209
4429.790373
4430.134996
4431.009870
4429.840110
4427.512727
4426.835768
4425.428798
4425.822719
4425.536788
4424.475885
4418.825698
4419.246807
4456.061042
4416.749495
4481.005950
4389.435830
4439.238532
4433.611794
4437.776270
4408.206596
4400.075712
4423.368570
4414.273342
4408.279598
4444.535192
4419.818373
4427.796447
4428.573883
4428.326126
4427.694080
4427.452135
4426.546531
4426.302292
4425.050244
4425.741810
4427.286305
4427.806892
4428.642572
4426.948131
4426.052857
4426.271564
4440.307209
4432.912389
4433.206307
4417.322823
4367.276443
4450.510366
4433.906537
4430.988033
4428.068679
4423.769822
4441.169113
4457.636908
4467.698992
4420.850270
4468.792092
4395.335285
4427.549981
4428.446508
4428.306677
4428.156899
4429.154218
4429.401933
4430.086847
4431.022989
4429.716504
4427.542590
4427.018318
4425.316169
4426.876290
4426.539727
4427.031181
4436.885240
4437.524552
4443.967875
4434.200171
4429.319947
4463.282755
4405.859204
4418.170073
4431.390740
4423.473934
4444.671405
4382.592953
4436.237106
4410.407996
4425.669293
4438.265371
4427.641414
4428.264476
4428.489967
4427.476613
4427.645377
4426.014269
4426.962717
4424.138619
4426.443814
4426.299651
4428.467235
4428.550130
4427.942914
4427.038653
4428.772576
4410.622547
4413.146447
4411.958120
4419.269291
4447.790796
4439.871148
4433.599138
4425.022797
4342.908230
4451.923100
4419.557072
4396.362209
4430.622587
4404.563676
4406.474025
4406.827629
4427.620955
4428.047190
4428.640400
4427.371772
4429.527584
4428.775081
4430.109776
4430.781598
4429.713903
4427.302255
4427.416164
4425.307080
4428.215878
4426.702144
4429.379023
4439.618241
4419.877224
4448.504746
4457.298514
4382.409973
4419.483310
4428.500827
4442.050494
4413.625856
4440.561820
4415.288114
4442.003092
4365.390658
4469.807915
4402.279755
4440.196894
4427.459321
4428.141486
4428.461651
4427.392788
4427.514250
4425.696937
4426.990278
4423.868219
4426.034101
4426.158968
4428.031192
4428.570428
4427.818852
4426.539007
4429.236214
4427.129966
4420.724791
4445.740038
4447.208739
4448.957846
4429.015739
4431.773671
4478.656413
4370.067195
4467.944400
4435.686815
4445.310001
4447.948030
4368.851218
4401.072480
4385.648208
4427.616750
4428.193313
4428.132962
4427.514990
4428.757877
4428.938273
4429.566732
4430.680139
4429.777249
4427.110535
4427.356964
4425.013523
4427.249703
4426.571433
4425.177276
4409.224087
4431.166703
4411.900287
4404.984434
4417.117521
4417.991552
4446.993632
4445.457343
4479.274490
4396.924469
4439.796748
4392.339681
4416.748223
4418.781849
4422.852180
4454.803273
4427.269209
4428.229945
4428.349344
4427.084275
4427.620277
4425.727022
4426.818260
4424.496415
4425.472506
4426.325642
4427.299567
4428.155319
4425.804528
4425.727829
4425.082088
4424.907307
4445.613622
4417.729078
4435.350192
4426.908154
4436.388358
4438.016028
4438.623255
4419.198358
4394.300191
4417.694717
4463.063142
4429.253712
4418.721640
4518.439078
4451.489324
4427.385874
4428.606359
4427.302758
4428.228514
4427.884292
4429.867845
4428.864735
4431.278634
4429.310547
4427.731578
4426.091791
4425.457692
4426.443114
4425.262079
4427.768866
4434.897316
4452.446030
4390.462519
4452.159346
4441.086997
4423.410422
4423.938791
4431.707831
4389.662657
4429.399377
4418.207043
4430.217965
4426.473906
4442.842669
4412.875015
4453.728721
4427.077612
4428.616350
4427.871288
4427.830604
4427.000991
4426.697526
4425.777486
4425.085528
4424.789885
4425.745258
4427.040966
4427.156073
4425.747454
4425.582485
4423.948691
4437.235967
4421.796069
4409.423484
4418.578338
4451.399882
4438.494595
4422.699504
4446.327850
4438.166019
4447.396597
4416.677533
4414.798311
4429.066366
4404.259716
4398.909306
4398.745492
4427.286482
4428.230916
4427.719525
4427.288964
4428.788702
4428.779428
4429.372291
4430.735175
4429.634281
4427.732224
4426.226032
4425.680321
4425.558128
4426.627707
4424.633000
4419.733066
4426.434337
4413.968090
4423.837343
4372.415958
4441.230711
4439.200358
4421.675177
4398.081628
4476.823499
4421.171874
4413.461819
4438.821875
4411.366111
4424.551762
4432.670505
4427.450633
4428.222100
4428.346672
4427.855005
4427.022811
4426.679478
4426.547219
4424.737499
4425.673202
4425.290448
4426.907955
4427.017620
4426.187881
4424.521769
4427.119520
4414.474242
4417.675334
4403.017971
4452.202024
4396.679435
4432.214031
4422.980446
4440.462243
4439.430851
4449.612262
4454.156665
4429.098719
4429.560257
4456.776575
4453.355803
4423.374706
4427.443825
4427.949962
4427.760927
4426.639951
4428.574916
4427.944387
4429.474266
4430.246830
4428.993327
4427.096419
4426.873816
4423.356784
4426.787050
4424.301290
4424.370828
4423.073481
4408.312543
4407.263453
4446.377047
4382.097824
4409.944678
4444.567745
4422.694621
4470.530163
4464.416938
4442.997602
4412.056014
4453.705850
4453.886557
4420.667995
4435.677862
4427.260849
4427.431820
4429.014518
4425.955919
4428.171893
4424.310642
4427.635068
4422.226254
4425.979078
4423.715037
4426.020964
4427.094489
4424.186763
4422.842708
4426.913166
4422.804253
4451.781539
4413.418340
4467.000483
4376.992574
4436.400816
4431.292111
4435.861300
4429.247412
4462.152942
4446.265680
4457.234636
4432.013215
4424.176324
4399.071390
4426.672033
4427.223265
4428.012912
4427.406518
4426.942890
4427.639899
4428.625357
4429.227294
4430.723176
4429.676518
4428.447504
4427.242900
4424.275298
4425.185167
4423.419516
4422.803011
4424.779754
4425.386285
4416.936699
4383.591530
4420.939564
4445.840720
4630.356757
4442.730949
4439.160516
4444.153003
4392.452881
4407.073338
4391.582976
4434.050745
4400.918950
4442.026144
4426.998316
4428.423289
4427.552928
4427.762070
4427.288612
4426.702431
4426.642856
4425.457381
4425.823727
4424.864321
4426.938404
4425.890611
4424.446812
4423.217427
4424.277754
4415.804753
4425.720342
4440.567000
4415.090062
4443.168685
4417.470270
4419.003734
4473.411735
4372.885741
4439.268391
4429.890827
4428.132853
4442.817653
4419.430146
4545.136621
4412.872748
4426.818250
4428.122315
4427.589949
4426.771437
4428.016266
4428.803969
4428.223643
4430.915990
4429.034990
4427.744641
4425.120908
4425.534721
4424.629074
4424.120757
4422.015076
4423.646412
4425.177535
4443.926435
4413.527353
4473.706677
4457.496297
4430.768388
4420.194331
4442.707572
4432.394339
4445.002343
4433.756862
4456.959536
4421.389067
4306.920841
4436.785268
4427.348635
4428.854406
4427.626691
4429.014614
4426.223352
4427.181703
4425.082615
4425.308021
4423.194713
4424.304984
4424.073415
4424.066582
4423.643534
4424.611433
4420.600477
4424.822888
4424.401031
4402.820489
4413.617593
4457.777935
4410.345258
4440.308795
4442.606928
4436.406395
4435.650993
4411.789735
4456.211348
4450.891275
4387.509761
4374.894929
4403.531221