# vtk DataFile Version 2.0
mfree iwf
ASCII

DATASET UNSTRUCTURED_GRID
POINTS 8007 float
0.000001 0.000446 0.000000
0.000001 0.000451 0.000000
0.000001 0.000456 0.000000
0.000002 0.000461 0.000000
0.000002 0.000466 0.000000
0.000002 0.000471 0.000000
0.000002 0.000476 0.000000
0.000002 0.000481 0.000000
0.000002 0.000486 0.000000
0.000002 0.000491 0.000000
0.000002 0.000496 0.000000
0.000003 0.000501 0.000000
0.000005 0.000505 0.000000
0.000005 0.000510 0.000000
0.000005 0.000515 0.000000
0.000005 0.000520 0.000000
0.000005 0.000525 0.000000
0.000005 0.000530 0.000000
0.000005 0.000535 0.000000
0.000005 0.000540 0.000000
0.000005 0.000546 0.000000
0.000005 0.000551 0.000000
0.000005 0.000556 0.000000
0.000005 0.000561 0.000000
0.000005 0.000566 0.000000
0.000005 0.000571 0.000000
0.000005 0.000576 0.000000
0.000005 0.000581 0.000000
0.000005 0.000586 0.000000
0.000005 0.000591 0.000000
0.000005 0.000596 0.000000
0.000005 0.000602 0.000000
0.000006 0.000446 0.000000
0.000006 0.000451 0.000000
0.000006 0.000456 0.000000
0.000007 0.000461 0.000000
0.000007 0.000466 0.000000
0.000007 0.000471 0.000000
0.000007 0.000476 0.000000
0.000007 0.000480 0.000000
0.000007 0.000486 0.000000
0.000007 0.000490 0.000000
0.000007 0.000496 0.000000
0.000007 0.000500 0.000000
0.000010 0.000505 0.000000
0.000009 0.000511 0.000000
0.000009 0.000516 0.000000
0.000010 0.000521 0.000000
0.000009 0.000526 0.000000
0.000010 0.000531 0.000000
0.000010 0.000536 0.000000
0.000010 0.000541 0.000000
0.000010 0.000546 0.000000
0.000010 0.000551 0.000000
0.000010 0.000556 0.000000
0.000010 0.000561 0.000000
0.000010 0.000566 0.000000
0.000010 0.000571 0.000000
0.000010 0.000576 0.000000
0.000010 0.000581 0.000000
0.000010 0.000587 0.000000
0.000009 0.000592 0.000000
0.000009 0.000597 0.000000
0.000009 0.000602 0.000000
0.000011 0.000446 0.000000
0.000011 0.000450 0.000000
0.000011 0.000456 0.000000
0.000012 0.000460 0.000000
0.000012 0.000466 0.000000
0.000012 0.000470 0.000000
0.000012 0.000476 0.000000
0.000012 0.000480 0.000000
0.000012 0.000485 0.000000
0.000012 0.000490 0.000000
0.000012 0.000496 0.000000
0.000013 0.000500 0.000000
0.000014 0.000506 0.000000
0.000014 0.000510 0.000000
0.000015 0.000516 0.000000
0.000014 0.000521 0.000000
0.000015 0.000526 0.000000
0.000015 0.000531 0.000000
0.000015 0.000536 0.000000
0.000015 0.000541 0.000000
0.000015 0.000546 0.000000
0.000015 0.000551 0.000000
0.000015 0.000556 0.000000
0.000015 0.000561 0.000000
0.000015 0.000566 0.000000
0.000015 0.000571 0.000000
0.000015 0.000576 0.000000
0.000015 0.000581 0.000000
0.000014 0.000586 0.000000
0.000014 0.000591 0.000000
0.000014 0.000597 0.000000
0.000014 0.000602 0.000000
0.000016 0.000445 0.000000
0.000016 0.000450 0.000000
0.000016 0.000455 0.000000
0.000017 0.000460 0.000000
0.000017 0.000465 0.000000
0.000017 0.000470 0.000000
0.000017 0.000475 0.000000
0.000017 0.000480 0.000000
0.000017 0.000485 0.000000
0.000017 0.000490 0.000000
0.000017 0.000495 0.000000
0.000018 0.000500 0.000000
0.000018 0.000505 0.000000
0.000019 0.000511 0.000000
0.000019 0.000516 0.000000
0.000019 0.000521 0.000000
0.000019 0.000526 0.000000
0.000019 0.000531 0.000000
0.000019 0.000536 0.000000
0.000019 0.000541 0.000000
0.000019 0.000546 0.000000
0.000019 0.000551 0.000000
0.000019 0.000556 0.000000
0.000019 0.000561 0.000000
0.000019 0.000566 0.000000
0.000019 0.000571 0.000000
0.000019 0.000577 0.000000
0.000019 0.000582 0.000000
0.000019 0.000587 0.000000
0.000019 0.000592 0.000000
0.000019 0.000597 0.000000
0.000019 0.000602 0.000000
0.000021 0.000445 0.000000
0.000021 0.000450 0.000000
0.000021 0.000455 0.000000
0.000022 0.000460 0.000000
0.000022 0.000465 0.000000
0.000022 0.000470 0.000000
0.000022 0.000475 0.000000
0.000022 0.000480 0.000000
0.000022 0.000485 0.000000
0.000022 0.000490 0.000000
0.000022 0.000495 0.000000
0.000023 0.000500 0.000000
0.000023 0.000505 0.000000
0.000024 0.000510 0.000000
0.000024 0.000516 0.000000
0.000024 0.000521 0.000000
0.000024 0.000526 0.000000
0.000024 0.000531 0.000000
0.000024 0.000536 0.000000
0.000024 0.000541 0.000000
0.000024 0.000546 0.000000
0.000024 0.000551 0.000000
0.000024 0.000556 0.000000
0.000024 0.000561 0.000000
0.000024 0.000566 0.000000
0.000024 0.000571 0.000000
0.000024 0.000576 0.000000
0.000024 0.000581 0.000000
0.000024 0.000586 0.000000
0.000024 0.000592 0.000000
0.000024 0.000597 0.000000
0.000024 0.000602 0.000000
0.000026 0.000445 0.000000
0.000026 0.000450 0.000000
0.000026 0.000455 0.000000
0.000027 0.000460 0.000000
0.000027 0.000465 0.000000
0.000027 0.000470 0.000000
0.000027 0.000475 0.000000
0.000027 0.000480 0.000000
0.000027 0.000485 0.000000
0.000027 0.000490 0.000000
0.000027 0.000495 0.000000
0.000028 0.000500 0.000000
0.000028 0.000505 0.000000
0.000029 0.000511 0.000000
0.000029 0.000516 0.000000
0.000029 0.000521 0.000000
0.000029 0.000526 0.000000
0.000029 0.000531 0.000000
0.000029 0.000536 0.000000
0.000029 0.000541 0.000000
0.000029 0.000546 0.000000
0.000029 0.000551 0.000000
0.000029 0.000556 0.000000
0.000029 0.000561 0.000000
0.000029 0.000566 0.000000
0.000029 0.000572 0.000000
0.000029 0.000577 0.000000
0.000029 0.000582 0.000000
0.000029 0.000587 0.000000
0.000029 0.000592 0.000000
0.000029 0.000597 0.000000
0.000029 0.000602 0.000000
0.000031 0.000445 0.000000
0.000031 0.000450 0.000000
0.000031 0.000455 0.000000
0.000032 0.000460 0.000000
0.000032 0.000465 0.000000
0.000032 0.000470 0.000000
0.000032 0.000475 0.000000
0.000032 0.000480 0.000000
0.000032 0.000485 0.000000
0.000032 0.000490 0.000000
0.000032 0.000495 0.000000
0.000033 0.000500 0.000000
0.000033 0.000505 0.000000
0.000033 0.000510 0.000000
0.000034 0.000516 0.000000
0.000034 0.000521 0.000000
0.000034 0.000526 0.000000
0.000034 0.000531 0.000000
0.000034 0.000536 0.000000
0.000034 0.000541 0.000000
0.000034 0.000546 0.000000
0.000034 0.000551 0.000000
0.000034 0.000556 0.000000
0.000034 0.000561 0.000000
0.000034 0.000566 0.000000
0.000034 0.000571 0.000000
0.000034 0.000577 0.000000
0.000034 0.000582 0.000000
0.000034 0.000587 0.000000
0.000034 0.000592 0.000000
0.000034 0.000597 0.000000
0.000034 0.000602 0.000000
0.000036 0.000445 0.000000
0.000036 0.000450 0.000000
0.000036 0.000455 0.000000
0.000037 0.000460 0.000000
0.000037 0.000465 0.000000
0.000037 0.000470 0.000000
0.000037 0.000475 0.000000
0.000037 0.000480 0.000000
0.000037 0.000485 0.000000
0.000037 0.000490 0.000000
0.000037 0.000495 0.000000
0.000037 0.000500 0.000000
0.000038 0.000505 0.000000
0.000038 0.000510 0.000000
0.000038 0.000516 0.000000
0.000039 0.000521 0.000000
0.000039 0.000526 0.000000
0.000039 0.000531 0.000000
0.000039 0.000536 0.000000
0.000039 0.000541 0.000000
0.000039 0.000546 0.000000
0.000039 0.000551 0.000000
0.000039 0.000556 0.000000
0.000039 0.000561 0.000000
0.000039 0.000567 0.000000
0.000039 0.000572 0.000000
0.000039 0.000577 0.000000
0.000039 0.000582 0.000000
0.000039 0.000587 0.000000
0.000039 0.000592 0.000000
0.000039 0.000597 0.000000
0.000039 0.000602 0.000000
0.000041 0.000445 0.000000
0.000041 0.000450 0.000000
0.000041 0.000455 0.000000
0.000042 0.000460 0.000000
0.000042 0.000465 0.000000
0.000042 0.000470 0.000000
0.000042 0.000475 0.000000
0.000042 0.000480 0.000000
0.000042 0.000485 0.000000
0.000042 0.000490 0.000000
0.000042 0.000495 0.000000
0.000042 0.000500 0.000000
0.000043 0.000505 0.000000
0.000043 0.000510 0.000000
0.000043 0.000516 0.000000
0.000044 0.000521 0.000000
0.000044 0.000526 0.000000
0.000044 0.000531 0.000000
0.000044 0.000536 0.000000
0.000044 0.000541 0.000000
0.000044 0.000546 0.000000
0.000044 0.000551 0.000000
0.000044 0.000556 0.000000
0.000044 0.000561 0.000000
0.000044 0.000566 0.000000
0.000044 0.000572 0.000000
0.000044 0.000577 0.000000
0.000044 0.000582 0.000000
0.000044 0.000587 0.000000
0.000044 0.000592 0.000000
0.000044 0.000597 0.000000
0.000044 0.000602 0.000000
0.000046 0.000445 0.000000
0.000046 0.000450 0.000000
0.000046 0.000455 0.000000
0.000047 0.000460 0.000000
0.000047 0.000465 0.000000
0.000047 0.000470 0.000000
0.000047 0.000475 0.000000
0.000047 0.000480 0.000000
0.000047 0.000485 0.000000
0.000047 0.000490 0.000000
0.000047 0.000495 0.000000
0.000047 0.000500 0.000000
0.000048 0.000505 0.000000
0.000048 0.000510 0.000000
0.000048 0.000515 0.000000
0.000048 0.000521 0.000000
0.000049 0.000526 0.000000
0.000049 0.000531 0.000000
0.000049 0.000536 0.000000
0.000049 0.000541 0.000000
0.000049 0.000546 0.000000
0.000049 0.000551 0.000000
0.000049 0.000556 0.000000
0.000049 0.000561 0.000000
0.000049 0.000567 0.000000
0.000049 0.000572 0.000000
0.000049 0.000577 0.000000
0.000049 0.000582 0.000000
0.000049 0.000587 0.000000
0.000049 0.000592 0.000000
0.000049 0.000597 0.000000
0.000049 0.000602 0.000000
0.000051 0.000445 0.000000
0.000051 0.000450 0.000000
0.000051 0.000455 0.000000
0.000052 0.000460 0.000000
0.000052 0.000465 0.000000
0.000052 0.000470 0.000000
0.000052 0.000475 0.000000
0.000052 0.000480 0.000000
0.000052 0.000485 0.000000
0.000052 0.000490 0.000000
0.000052 0.000495 0.000000
0.000052 0.000500 0.000000
0.000053 0.000505 0.000000
0.000053 0.000510 0.000000
0.000053 0.000515 0.000000
0.000053 0.000521 0.000000
0.000053 0.000526 0.000000
0.000054 0.000531 0.000000
0.000054 0.000536 0.000000
0.000054 0.000541 0.000000
0.000054 0.000546 0.000000
0.000054 0.000551 0.000000
0.000054 0.000556 0.000000
0.000054 0.000561 0.000000
0.000054 0.000566 0.000000
0.000054 0.000572 0.000000
0.000054 0.000577 0.000000
0.000054 0.000582 0.000000
0.000054 0.000587 0.000000
0.000054 0.000592 0.000000
0.000054 0.000597 0.000000
0.000054 0.000602 0.000000
0.000056 0.000445 0.000000
0.000056 0.000450 0.000000
0.000056 0.000455 0.000000
0.000057 0.000460 0.000000
0.000057 0.000465 0.000000
0.000057 0.000470 0.000000
0.000057 0.000475 0.000000
0.000057 0.000480 0.000000
0.000057 0.000485 0.000000
0.000057 0.000490 0.000000
0.000057 0.000495 0.000000
0.000057 0.000500 0.000000
0.000057 0.000505 0.000000
0.000058 0.000510 0.000000
0.000058 0.000515 0.000000
[...]
POINT_DATA 8007
SCALARS density float 1
LOOKUP_TABLE default
4425.682625
4427.099435
4428.306068
4428.676942
4429.504466
4429.646452
4431.971504
4430.860175
4437.104019
4426.988897
4448.146563
4380.862476
4665.403535
4492.150667
4556.313802
4516.134402
4523.090131
4515.904095
4513.847967
4510.913292
4508.963963
4508.644743
4507.724277
4505.280015
4504.976594
4503.552720
4502.130635
4503.455050
4499.163999
4496.119637
4511.111715
4466.796634
4433.206944
4428.730049
4428.253745
4430.110833
4430.984494
4430.631809
4434.399250
4431.595909
4436.753699
4442.258290
4461.076804
4445.593357
4441.979041
4459.148327
4476.960352
4466.608270
4464.893315
4462.315550
4462.573126
4459.856871
4459.714327
4458.513267
4457.236822
4456.146082
4455.669542
4454.034808
4452.972295
4450.001345
4449.050573
4449.648404
4424.506339
4446.498461
4428.334768
4429.619039
4431.249338
4431.030239
4432.688450
4431.773489
4437.823171
4432.178476
4444.589828
4430.640999
4442.874372
4462.784250
4480.115112
4500.350707
4473.629208
4470.515163
4475.700374
4465.400207
4468.881860
4463.865960
4465.279884
4461.658919
4461.685039
4460.240827
4458.407117
4457.344117
4455.803329
4454.981785
4452.497658
4448.649029
4454.515707
4449.041170
4428.450554
4431.239782
4430.870133
4431.447238
4434.688734
4434.366622
4437.525172
4438.416588
4439.036806
4449.452779
4450.227557
4460.587879
4469.707546
4468.274843
4480.679512
4482.430240
4473.453883
4474.553083
4471.456692
4469.237471
4468.105202
4466.353744
4465.432705
4463.268789
4461.718579
4459.335955
4457.211779
4454.274493
4452.868876
4450.501835
4447.233698
4444.705381
4426.949122
4432.003857
4430.849597
4435.341726
4433.930447
4437.114440
4436.601495
4442.298577
4442.712514
4443.299820
4445.343788
4453.034021
4461.547612
4471.254246
4472.825922
4466.912808
4468.164984
4466.463516
4462.291710
4462.347428
4459.715579
4458.478324
4456.988551
4454.969593
4453.577078
4450.906822
4449.478836
4447.122798
4445.765200
4445.453712
4447.894069
4443.527415
4428.573745
4434.462907
4431.876645
4436.231316
4433.525868
4439.509560
4438.781462
4441.158676
4443.620972
4446.436496
4450.537741
4458.791056
4464.027300
4468.191998
4470.523609
4475.988133
4474.451412
4470.849694
4470.310794
4467.627213
4465.877910
4464.108640
4461.792324
4459.696544
4457.527844
4455.360231
4453.432111
4452.073786
4451.694650
4450.289068
4447.552922
4442.548556
4430.597785
4435.836165
4432.247564
4437.124037
4436.149295
4439.257359
4438.980290
4443.732827
4442.587399
4445.630001
4446.314973
4449.348688
4454.434590
4460.867093
4464.277415
4465.210284
4464.407887
4465.406876
4463.405050
4461.205296
4459.701201
4457.445470
4455.538731
4453.685263
4451.711718
4450.073038
4448.780735
4447.485953
4446.241429
4445.647669
4446.290573
4441.311196
4430.658240
4435.545805
4434.768753
4437.446933
4435.991778
4439.941273
4439.770144
4443.522579
4443.019773
4445.795999
4447.163351
4454.975302
4459.111373
4461.689942
4463.842095
4466.874815
4468.788939
4467.888725
4466.264428
4465.461938
4462.805181
4461.090021
4459.022051
4457.003437
4455.374109
4453.672246
4452.472845
4451.419816
4450.527525
4449.330281
4447.237623
4441.932113
4429.212062
4436.821170
4433.746079
4437.092453
4436.936305
4440.357617
4440.199250
4442.568512
4442.201292
4444.891962
4445.959124
4448.550159
4449.526504
4455.408646
4458.818710
4460.524356
4460.939056
4461.901465
4461.856192
4460.578561
4458.865405
4457.360384
4455.259375
4453.687499
4451.924546
4450.685242
4449.467580
4448.140810
4447.158915
4446.383552
4445.995420
4441.083258
4431.839257
4437.461129
4432.238196
4438.881692
4436.648032
4439.600698
4439.987198
4442.788481
4442.683399
4444.956655
4445.543714
4449.594464
4454.375729
4457.393606
4457.418461
4460.146085
4461.982781
4462.993705
4462.274179
4461.849088
4460.764714
4459.052037
4457.376579
4455.942395
4454.400033
4453.309621
4452.224475
4451.278911
4450.340080
4449.095762
4446.872566
4441.496417
4432.523325
4437.194585
4433.047774
4438.229467
4435.383697
4441.045758
4439.385580
4441.691641
4441.425395
4442.829433
4443.714070
4447.396231
4447.757462
4449.699246
4454.237017
4456.731432
4456.608895
4457.777106
4458.186014
4458.281143
4457.306008
4456.561202
4455.269572
4453.921706
4452.610765
4451.448983
4450.228635
4449.161682
4448.120246
4447.232196
4446.436015
4441.366034
4434.339695
4436.768538
4433.368488
4437.513168
4436.503306
4440.006081
4437.939698
4442.008828
4440.841555
4443.163233
4444.568460
4446.179838
4448.043732
4453.188681
4453.944213
4454.025368
4456.245595
4457.777535
4457.750158
4457.867259
4457.618657
4457.201364
4456.270549
4455.449406
4454.253859
4453.236465
4452.156795
4451.205515
4450.276349
4449.138809
4447.216744
4441.688444
4432.118878
4437.007870
4432.964745
4437.419605
4436.058774
4438.845868
4438.624439
4440.851116
4439.560865
4442.190286
4441.235241
4443.825776
4446.365467
4447.615077
4448.046645
4452.471835
4453.657958
4453.275781
4454.465984
4455.148215
4455.074288
4454.914364
4454.517802
4453.921166
4453.055106
4452.152732
4451.054355
4450.085755
4449.149383
4448.166131
4447.160381
4441.571695
4435.312959
4436.772535
4432.702055
4437.737075
4435.317718
4439.045651
4437.916887
4439.298563
4439.603329
4441.061112
4441.259284
4444.879352
4444.499513
4446.815248
4450.215495
4451.341002
4450.559531
4453.134575
4454.143174
4454.087801
4454.621446
4454.844128
4454.685587
4454.226590
4453.747255
4452.988082
4452.249818
4451.362258
4450.417440
4449.309717
4447.748231
4442.098430
4432.497863
4435.945630
4433.229593
4437.404908
4434.974412
4438.475670
4436.608830
4439.369931
4438.741641
4439.831524
4440.546083
4441.269787
4441.930534
4445.842347
4445.786645
4446.684192
4449.899767
4451.313415
4450.494507
4452.085859
4452.729117
4452.820434
4452.979240
4452.955853
4452.667801
4452.083389
4451.493408
4450.555134
4449.786102
4448.886349
4448.104055
4442.610304
4436.013804
4435.617559
4433.807038
4436.807444
4435.004800
4437.932301
4436.528608
4438.708821
4437.488197
4439.673841
4439.254316
4440.915713
4442.994302
4443.688306
4444.495641
4448.243064
4448.675163
4448.387535
4450.600637
4451.832551
4451.411121
4452.458333
4452.678021
4452.746558
4452.642784
4452.347667
4452.033998
4451.319692
4450.821243
4449.756218
4448.784965
4443.542305
4431.415889
4434.977535
4433.741187
4436.733957
4434.987033
4437.265549
4436.022582
4437.771154
4437.200413
4438.737692
4438.217429
4440.537088
4439.961835
4441.512626
4444.182293
4444.852849
4445.124486
4448.294499
4449.391656
4448.962261
4450.382686
4451.236331
4451.109413
4451.555385
4451.687403
4451.422785
4451.357238
4450.729791
4450.571385
4449.619828
4449.237046
4444.606212
4436.032539
4435.115035
4433.829883
4436.742518
4434.613335
4436.991031
4435.706286
4437.398369
4436.752796
4437.998998
4438.109116
4439.266559
4439.405264
4442.426995
4442.224319
4443.533148
4446.324072
4447.202529
4446.879722
4449.113313
4450.242236
4449.879400
4450.948613
4451.233850
4451.416846
4451.316674
4451.595918
4450.961632
4451.079516
4450.099072
4449.799483
4445.920226
4431.137048
4433.946961
4434.226383
4436.547119
4434.465103
4436.860129
4435.292834
4436.907252
4436.171518
4437.614319
4437.204098
4438.435744
4439.313664
4440.113457
4440.522881
4443.611848
4443.732162
4444.536613
4447.108241
4448.185570
4447.921021
4449.287194
4450.237811
4449.930725
4450.753970
4450.632375
4450.999340
4450.500176
4450.978708
4450.011522
4450.106685
4447.163245
4436.075796
4434.588019
4434.411453
4436.309535
4434.636593
4436.568793
4434.979835
4436.700569
4435.884728
4437.111745
4436.747407
4438.344868
4438.204891
4439.505372
4441.180273
4441.924667
4442.537944
4445.355278
4445.914059
4446.079703
4448.113844
4449.039732
4448.984774
4449.776995
4450.589415
4450.297715
4451.043447
4450.563017
4451.215244
4450.301859
4450.591394
4448.205790
4430.702212
4433.561579
4434.546257
4436.297375
4434.604485
4436.374896
4435.018203
4436.456219
4435.479384
4436.766747
4436.537102
4437.549693
4437.520057
4439.381146
4439.394882
4440.616034
4442.630452
4443.287283
4443.904040
4446.281085
4447.199262
4447.090312
4448.672815
4449.263705
4449.559687
4449.816382
4450.743998
4450.258620
4451.120672
4450.423205
4451.076123
4448.975686
4436.139835
4434.631967
4434.536977
4436.233951
4434.619593
4436.389957
4434.928470
4436.279893
4435.425811
4436.580784
4436.070964
4437.197890
4437.524047
4438.434269
4438.789120
4440.934437
4441.168098
4442.248643
4444.362772
4444.993407
4445.469125
4447.199313
4448.306090
4448.074409
4449.515645
4449.682235
4450.389938
4450.273696
4451.338448
4450.687282
4451.562227
4449.569584
4430.916268
4433.553373
4434.711314
4436.262097
4434.668238
4436.346654
4434.910999
4436.367101
4435.371790
4436.346822
4435.910085
4437.067909
4436.848979
4437.885006
4438.713486
4439.490424
4440.128509
4442.234049
4442.646701
4443.437425
4445.581110
4446.246041
4446.784950
4447.841175
4449.082390
4448.840102
4450.191870
4450.074734
4451.247135
4450.859388
4451.888935
4450.005021
4436.355413
4434.850528
4434.748697
4436.095063
4434.744504
4436.366843
4435.040228
4436.380955
4435.321952
4436.483698
4435.919059
4436.690372
4436.572182
4437.866152
4437.943081
4438.972950
4440.263557
4440.920069
4441.754913
4443.652077
4444.365899
4444.818338
4446.819112
4447.390666
4448.124503
4448.713676
4450.129538
4449.828193
4451.357783
4451.044865
4452.061396
4450.282522
4393.956299
4422.489368
4421.692746
4422.612317
4423.814194
4423.999210
4424.846100
4425.094294
4425.713014
4426.047749
4426.506429
4426.990980
4427.458693
4428.269403
4429.263825
4401.549837
4418.775887
4419.234393
4420.102171
4422.312821
4422.192646
4423.656654
4423.839955
4424.823087
4425.219379
4425.975057
4426.490381
4427.173365
4427.101369
4429.153919
4408.556658
4419.191659
4419.625971
4420.472556
4422.933189
4422.363357
4424.564626
4424.072250
4425.735426
4425.682929
4426.886803
4427.172739
4428.115404
4428.193164
4430.409250
4412.567611
4421.437367
4420.561251
4421.749493
4423.273904
4423.351025
4425.025268
4424.844794
4426.416277
4426.362623
4427.727300
4427.918617
4429.211974
4429.670199
4431.931029
4416.544195
4422.759542
4422.200617
4422.910343
4424.144999
4424.370113
4425.646913
4425.800193
4427.067377
4427.235735
4428.466879
4428.851196
4430.017750
4430.695403
4433.058028
4419.171481
4424.021419
4423.380296
4424.007600
4424.996697
4425.194538
4426.363626
4426.559228
4427.675595
4428.026631
4429.090963
4429.628165
4430.934706
4431.614397
4433.760635
4421.619884
4425.233387
4424.808283
4425.142356
4425.918463
4426.149925
4427.118112
4427.320891
4428.374485
4428.690097
4429.738599
4430.285790
4431.423630
4432.252971
4434.231037
4423.561142
4426.175381
4425.756317
4426.099053
4426.738781
4426.955622
4427.773116
4428.036723
4428.968005
4429.302787
4430.287208
4430.830112
4431.935765
4432.651120
4434.352968
4425.349340
4427.115695
4426.898893
4427.126716
4427.555684
4427.798759
4428.478339
4428.744721
4429.525689
4429.907894
4430.755950
4431.243492
4432.202668
4432.879077
4434.403509
4426.828159
4427.876188
4427.694336
4427.899986
4428.260832
4428.527870
4429.044496
4429.366584
4430.027652
4430.411475
4431.164917
4431.642745
4432.451703
4433.023310
4434.337283
4428.173268
4428.619263
4428.587256
4428.753818
4428.979483
4429.239669
4429.651178
4429.982439
4430.518714
4430.902085
4431.537871
4431.968758
4432.665687
4433.175802
4434.326662
4429.307361
4429.232254
4429.252642
4429.391395
4429.558170
4429.846858
4430.162175
4430.489821
4430.943954
4431.319352
4431.873385
4432.268276
4432.868804
4433.335572
4434.338102
4430.326490
4429.817402
4429.955718
4430.072307
4430.171273
4430.442649
4430.672700
4431.001406
4431.383306
4431.725616
4432.211680
4432.577016
4433.106422
4433.550705
4434.449541
4433.859424
4436.166015
4436.333513
4436.454012
4436.590149
4436.788910
4437.328172
4438.888350
4440.128529
4442.198576
4444.876436
4446.131609
4448.373170
4449.760001
4451.013875
4450.417499
4431.194846
4430.308178
4430.506679
4430.597486
4430.651606
4430.940417
4431.113758
4431.433228
4431.749873
4432.084443
4432.521473
4432.850021
4433.341292
4433.796867
4434.602475
4434.260883
4436.154281
4436.474121
4436.649487
4436.912137
4437.120761
4437.698527
4438.172999
4439.391603
4441.499150
4442.922859
4445.403169
4447.586189
4449.265672
4450.903063
4450.324584
4431.970930
4430.768265
4431.058689
4431.140959
4431.154356
4431.438780
4431.546379
4431.869296
4432.132482
4432.447592
4432.835900
4433.152122
4433.612252
4434.070879
4434.793897
4434.682256
4436.136935
4436.560227
4436.885082
4437.254514
4437.633422
4438.142063
4438.699211
4439.767288
4440.670215
4442.317689
4444.788856
4446.607402
4448.825131
4450.307264
4449.864635
4432.634693
4431.159695
4431.504576
4431.571984
4431.552643
4431.854960
4431.916391
4432.244878
4432.456892
4432.768286
4433.116708
4433.421011
4433.853441
4434.343245
4434.971875
4435.074635
4436.218441
4436.699346
4437.113209
4437.518941
4438.042244
4438.559020
4439.363548
4440.093724
4441.113968
4442.694772
4444.042423
4446.117430
4448.051499
4449.370870
4449.133579
4433.222710
4431.518504
4431.935707
4432.003889
4431.956073
4432.267171
4432.281090
4432.615051
4432.782975
4433.094241
4433.405527
4433.704990
4434.108397
4434.604917
4435.120747
4435.425006
4436.309951
4436.812587
4437.275653
4437.749161
4438.315370
4438.894832
4439.673264
4440.453706
4441.628135
4442.663391
4444.036667
4445.766743
4447.081460
4448.517552
4448.071534
4433.727216
4431.826658
4432.288386
4432.354943
4432.281752
4432.611397
4432.589473
4432.935604
4433.065270
4433.375608
4433.656394
4433.951399
4434.330373
4434.843623
4435.235287
4435.733985
4436.442164
4436.935486
4437.398870
4437.913587
4438.473088
4439.128549
4439.839986
4440.722463
4441.654487
4442.734382
4444.078760
4445.242640
4446.585759
4447.934964
4446.509812
4434.167931
4432.104198
4432.617477
4432.693352
4432.597728
4432.944208
4432.887722
4433.242527
4433.340227
4433.652969
4433.909696
4434.198425
4434.553593
4435.067175
4435.339337
4436.030649
4436.570916
4437.035481
4437.505047
4438.023246
4438.579620
4439.237562
4439.918157
4440.776372
4441.627792
4442.724892
4443.758597
4444.928869
4446.246063
4447.415260
4444.826918
4434.544322
4432.341893
4432.887951
4432.973025
4432.854845
4433.221972
4433.138095
4433.506239
4433.577619
4433.889634
4434.124694
4434.407671
4434.746001
4435.265954
4435.432907
4436.309172
4436.721578
4437.150922
4437.594780
4438.085948
4438.641571
4439.254474
4439.935980
4440.700013
4441.542693
4442.481419
4443.465929
4444.564457
4445.657968
4446.806875
4443.448151
4434.868018
4432.551788
4433.132247
4433.232126
4433.094420
4433.481921
4433.372067
4433.750682
4433.799545
4434.114528
4434.333224
4434.607734
4434.928938
4435.445149
4435.523065
4436.564677
4436.856850
4437.250067
4437.670653
4438.133812
4438.654346
4439.223024
4439.880779
4440.566935
4441.375639
4442.185888
4443.114959
4444.050356
4445.024413
4446.051193
4442.408613
4435.140213
4432.729499
4433.332964
4433.445727
4433.289121
4433.695956
4433.565576
4433.956868
4433.986720
4434.302297
4434.504888
4434.772610
4435.081988
4435.595857
4435.597544
4436.773703
4436.972850
4437.337454
4437.726182
4438.153778
4438.632975
4439.170101
4439.764425
4440.408526
4441.130509
4441.877669
4442.698512
4443.518634
4444.381237
4445.228936
4441.595650
4435.368251
4432.882504
4433.508542
4433.635668
4433.463750
4433.888359
4433.739647
4434.140094
4434.154127
4434.471735
4434.662622
4434.922533
4435.218953
4435.723290
4435.659899
4436.940947
4437.051781
4437.395574
4437.755789
4438.157472
4438.599363
4439.090164
4439.629340
4440.229477
4440.862835
4441.557800
4442.261512
4442.997003
4443.737245
4444.446473
4440.910564
4435.553842
4433.009473
4433.650769
4433.789513
4433.603705
4434.043069
4433.878775
4434.288090
4434.289477
4434.607040
4434.785822
4435.037481
4435.324844
4435.821953
4435.703240
4437.059129
4437.109223
4437.429416
4437.766797
4438.144434
4438.549752
4439.004439
4439.498645
4440.035647
4440.604384
4441.226651
4441.848545
4442.494106
4443.120864
4443.722717
4440.305397
4435.702337
4433.115003
4433.770184
4433.920729
4433.723722
4434.174945
4433.998641
4434.414009
4434.402545
4434.719383
4434.889338
4435.135137
4435.411823
4435.895543
4435.733021
4437.142250
4437.140752
4437.436769
4437.765905
4438.109150
4438.493004
4438.912298
4439.359014
4439.848612
4440.362590
4440.903982
4441.459453
4442.011925
4442.542379
4443.051974
4439.754441
4435.815773
4433.199096
4433.863701
4434.023033
4433.816233
4434.277350
4434.089171
4434.507433
4434.486837
4434.803464
4434.961153
4435.197571
4435.463795
4435.938544
4435.742976
4437.177344
4437.150273
4437.434421
4437.741894
4438.059187
4438.425800
4438.800277
4439.219984
4439.659160
4440.118395
4440.595322
4441.081985
4441.552360
4442.002755
4442.423291
4439.245236
4435.897715
4433.265577
4433.937531
4434.104888
4433.891346
4434.358665
4434.160933
4434.583167
4434.551346
4434.861784
4435.010245
4435.242937
4435.498521
4435.959132
4435.738494
4437.188118
4437.145229
4437.415285
4437.695613
4438.005984
4438.328474
4438.685883
4439.068950
4439.456623
4439.879434
4440.290966
4440.715806
4441.121230
4441.499632
4441.836956
4438.770353
4435.950863
4433.314772
4433.990240
4434.164629
4433.944491
4434.415674
4434.211443
4434.631642
4434.589089
4434.899652
4435.036910
4435.255437
4435.495834
4435.943822
4435.707596
4437.143734
4437.126101
4437.375844
4437.644891
4437.928544
4438.223148
4438.568783
4438.894539
4439.265622
4439.634872
4439.999086
4440.371103
4440.722494
4441.038245
4441.298126
4438.326783
4435.978856
4433.348836
4434.026819
4434.207098
4433.981718
4434.457555
4434.244498
4434.663066
4434.615229
4434.915541
4435.036856
4435.252175
4435.485049
4435.916637
4435.666784
4437.107428
4437.093274
4437.330873
4437.587061
4437.835661
4438.134319
4438.422928
4438.744777
4439.078730
4439.396069
4439.743589
4440.048728
4440.364258
4440.624245
4440.808813
4437.912808
4435.983626
4433.368802
4434.047592
4434.231264
4434.002953
4434.480141
4434.258805
4434.679861
4434.617092
4434.911453
4435.030007
4435.227434
4435.434159
4435.846750
4435.591932
4436.991967
4437.049668
4437.298448
4437.517957
4437.763810
4438.037140
4438.296873
4438.618914
4438.891325
4439.211661
4439.507883
4439.771974
4440.048358
4440.267579
4440.374430
4437.528357
4435.967865
4433.377543
4434.054371
4434.241588
4434.012346
4434.487372
4434.263889
4434.679764
4434.606845
4434.902622
4434.993589
4435.178038
4435.388960
4435.781343
4435.527676
4436.933262
4436.996552
4437.278343
4437.451220
4437.720820
4437.945911
4438.222343
4438.490194
4438.763478
4439.062921
4439.302759
4439.565916
4439.779070
4439.982259
4440.003000
4437.173009
4435.934416
4433.376430
4434.046791
4434.240025
4434.007556
4434.481952
4434.256697
4434.663059
4434.591626
4434.868229
4434.952476
4435.140625
4435.301546
4435.658869
4435.397202
4436.690829
4437.004149
4437.260549
4437.433584
4437.689502
4437.889063
4438.176705
4438.401331
4438.707464
4438.924007
4439.183308
4439.416465
4439.571540
4439.782012
4439.711354
4436.847670
4435.886142
4433.365734
4434.028004
4434.228801
4433.990472
4434.470007
4434.235627
4434.642989
4434.563827
4434.827861
4434.913714
4435.049990
4435.208564
4435.572007
4435.319737
4436.760415
4437.086576
4437.170050
4437.468824
4437.663841
4437.919503
4438.173076
4438.387596
4438.654690
4438.864452
4439.155383
4439.304684
4439.473016
4439.666680
4439.526971
4436.551085
4435.824879
4433.345506
4434.000320
4434.206255
4433.964207
4434.449422
4434.201588
4434.622397
4434.518036
4434.797268
4434.852871
4434.992843
4435.153949
4435.387103
4435.087997
4436.368767
4437.202813
4437.232981
4437.593748
4437.704685
4437.974155
4438.180922
4438.457792
4438.666969
4438.944266
4439.125482
4439.289042
4439.534769
4439.607071
4439.492133
4436.295740
4435.752216
4433.316677
4433.965320
4434.173073
4433.932353
4434.417883
4434.164675
4434.594699
4434.468237
4434.773991
4434.777599
4434.953096
4435.008581
4435.221951
4435.089748
4436.652527
4437.113536
4437.245688
4437.574240
4437.880183
4438.143875
4438.292728
4438.584615
4438.735567
4439.054008
4439.169479
4439.537412
4439.633521
4439.647409
4439.781435
4436.184450