# vtk DataFile Version 2.0
mfree iwf
ASCII

DATASET UNSTRUCTURED_GRID
POINTS 11907 float
-0.000000 0.000445 0.000000
-0.000000 0.000450 0.000000
-0.000000 0.000455 0.000000
-0.000000 0.000460 0.000000
-0.000000 0.000465 0.000000
-0.000000 0.000470 0.000000
-0.000000 0.000475 0.000000
-0.000000 0.000480 0.000000
-0.000000 0.000485 0.000000
0.000000 0.000490 0.000000
-0.000000 0.000496 0.000000
0.000002 0.000500 0.000000
0.001303 0.001062 0.000000
0.001312 0.001059 0.000000
0.001353 0.001037 0.000000
0.001358 0.001034 0.000000
0.001357 0.001034 0.000000
0.001364 0.001030 0.000000
0.001370 0.001026 0.000000
0.001366 0.001029 0.000000
0.001378 0.001021 0.000000
0.001400 0.001005 0.000000
0.001404 0.000999 0.000000
0.001407 0.000996 0.000000
0.001409 0.000992 0.000000
0.001412 0.000988 0.000000
0.001415 0.000983 0.000000
0.001417 0.000979 0.000000
0.001419 0.000976 0.000000
0.001423 0.000970 0.000000
0.001427 0.000965 0.000000
0.001444 0.000952 0.000000
0.000005 0.000445 0.000000
0.000005 0.000450 0.000000
0.000005 0.000455 0.000000
0.000005 0.000460 0.000000
0.000005 0.000465 0.000000
0.000005 0.000470 0.000000
0.000005 0.000475 0.000000
0.000005 0.000480 0.000000
0.000005 0.000485 0.000000
0.000006 0.000489 0.000000
0.000003 0.000496 0.000000
0.000006 0.000498 0.000000
0.001349 0.001039 0.000000
0.001351 0.001029 0.000000
0.001383 0.001015 0.000000
0.001388 0.001011 0.000000
0.001392 0.001008 0.000000
0.001395 0.001005 0.000000
0.001396 0.001003 0.000000
0.001398 0.000999 0.000000
0.001401 0.000995 0.000000
0.001404 0.000990 0.000000
0.001409 0.000984 0.000000
0.001412 0.000979 0.000000
0.001415 0.000973 0.000000
0.001421 0.000966 0.000000
0.001422 0.000962 0.000000
0.001427 0.000958 0.000000
0.001436 0.000953 0.000000
0.001438 0.000951 0.000000
0.001433 0.000955 0.000000
0.001441 0.000950 0.000000
0.000010 0.000445 0.000000
0.000010 0.000450 0.000000
0.000010 0.000455 0.000000
0.000010 0.000460 0.000000
0.000010 0.000465 0.000000
0.000010 0.000469 0.000000
0.000010 0.000475 0.000000
0.000010 0.000479 0.000000
0.000009 0.000486 0.000000
0.000012 0.000489 0.000000
0.000008 0.000497 0.000000
0.000011 0.000498 0.000000
0.001347 0.001035 0.000000
0.001354 0.001027 0.000000
0.001369 0.001021 0.000000
0.001376 0.001017 0.000000
0.001380 0.001015 0.000000
0.001384 0.001012 0.000000
0.001374 0.001012 0.000000
0.001381 0.001007 0.000000
0.001386 0.001003 0.000000
0.001391 0.000999 0.000000
0.001399 0.000992 0.000000
0.001403 0.000987 0.000000
0.001402 0.000981 0.000000
0.001405 0.000977 0.000000
0.001410 0.000976 0.000000
0.001418 0.000968 0.000000
0.001428 0.000956 0.000000
0.001430 0.000954 0.000000
0.001434 0.000948 0.000000
0.001434 0.000942 0.000000
0.000015 0.000445 0.000000
0.000016 0.000450 0.000000
0.000014 0.000456 0.000000
0.000017 0.000460 0.000000
0.000014 0.000469 0.000000
0.000016 0.000465 0.000000
0.000014 0.000476 0.000000
0.000017 0.000480 0.000000
0.000014 0.000484 0.000000
0.000016 0.000489 0.000000
0.000014 0.000495 0.000000
0.000016 0.000497 0.000000
0.000025 0.000500 0.000000
0.001357 0.001026 0.000000
0.001371 0.001019 0.000000
0.001365 0.001017 0.000000
0.001377 0.001009 0.000000
0.001388 0.001009 0.000000
0.001387 0.001000 0.000000
0.001394 0.000995 0.000000
0.001390 0.000993 0.000000
0.001395 0.000989 0.000000
0.001401 0.000974 0.000000
0.001406 0.000984 0.000000
0.001409 0.000968 0.000000
0.001413 0.000969 0.000000
0.001413 0.000964 0.000000
0.001417 0.000962 0.000000
0.001420 0.000956 0.000000
0.001424 0.000953 0.000000
0.001426 0.000949 0.000000
0.001432 0.000940 0.000000
0.000019 0.000445 0.000000
0.000021 0.000450 0.000000
0.000018 0.000455 0.000000
0.000022 0.000459 0.000000
0.000019 0.000469 0.000000
0.000024 0.000467 0.000000
0.000018 0.000475 0.000000
0.000022 0.000479 0.000000
0.000019 0.000486 0.000000
0.000021 0.000491 0.000000
0.000020 0.000497 0.000000
0.000022 0.000499 0.000000
0.000039 0.000500 0.000000
0.001351 0.001016 0.000000
0.001359 0.001020 0.000000
0.001366 0.001012 0.000000
0.001371 0.001015 0.000000
0.001380 0.001002 0.000000
0.001378 0.000998 0.000000
0.001389 0.000989 0.000000
0.001381 0.000996 0.000000
0.001392 0.000984 0.000000
0.001389 0.000975 0.000000
0.001394 0.000971 0.000000
0.001399 0.000969 0.000000
0.001407 0.000963 0.000000
0.001411 0.000953 0.000000
0.001418 0.000953 0.000000
0.001419 0.000949 0.000000
0.001426 0.000943 0.000000
0.001430 0.000944 0.000000
0.001428 0.000937 0.000000
0.000024 0.000445 0.000000
0.000026 0.000450 0.000000
0.000024 0.000455 0.000000
0.000026 0.000461 0.000000
0.000021 0.000465 0.000000
0.000026 0.000473 0.000000
0.000022 0.000476 0.000000
0.000027 0.000481 0.000000
0.000023 0.000485 0.000000
0.000026 0.000488 0.000000
0.000026 0.000492 0.000000
0.000027 0.000500 0.000000
0.001331 0.001050 0.000000
0.001359 0.001023 0.000000
0.001364 0.001022 0.000000
0.001375 0.001004 0.000000
0.001371 0.001007 0.000000
0.001386 0.000997 0.000000
0.001383 0.000990 0.000000
0.001373 0.001000 0.000000
0.001379 0.000987 0.000000
0.001398 0.000985 0.000000
0.001396 0.000979 0.000000
0.001396 0.000981 0.000000
0.001405 0.000973 0.000000
0.001405 0.000967 0.000000
0.001415 0.000957 0.000000
0.001410 0.000959 0.000000
0.001422 0.000946 0.000000
0.001414 0.000948 0.000000
0.001422 0.000940 0.000000
0.001423 0.000934 0.000000
0.000030 0.000445 0.000000
0.000031 0.000450 0.000000
0.000029 0.000455 0.000000
0.000031 0.000459 0.000000
0.000031 0.000465 0.000000
0.000028 0.000468 0.000000
0.000031 0.000472 0.000000
0.000030 0.000477 0.000000
0.000030 0.000486 0.000000
0.000031 0.000492 0.000000
0.000033 0.000497 0.000000
0.000030 0.000499 0.000000
0.000048 0.000500 0.000000
0.001349 0.001024 0.000000
0.001359 0.001010 0.000000
0.001367 0.001007 0.000000
0.001364 0.001007 0.000000
0.001369 0.001002 0.000000
0.001374 0.000990 0.000000
0.001386 0.000978 0.000000
0.001387 0.000986 0.000000
0.001388 0.000980 0.000000
0.001396 0.000974 0.000000
0.001397 0.000960 0.000000
0.001401 0.000964 0.000000
0.001403 0.000960 0.000000
0.001405 0.000951 0.000000
0.001407 0.000956 0.000000
0.001412 0.000943 0.000000
0.001417 0.000943 0.000000
0.001420 0.000937 0.000000
0.001420 0.000931 0.000000
0.000035 0.000445 0.000000
0.000035 0.000450 0.000000
0.000034 0.000457 0.000000
0.000038 0.000454 0.000000
0.000035 0.000467 0.000000
0.000036 0.000472 0.000000
0.000032 0.000479 0.000000
0.000041 0.000479 0.000000
0.000034 0.000483 0.000000
0.000034 0.000488 0.000000
0.000037 0.000491 0.000000
0.000036 0.000498 0.000000
0.001290 0.001064 0.000000
0.001326 0.001052 0.000000
0.001356 0.001015 0.000000
0.001359 0.001004 0.000000
0.001371 0.000995 0.000000
0.001361 0.000995 0.000000
0.001378 0.000992 0.000000
0.001375 0.000985 0.000000
0.001382 0.000983 0.000000
0.001373 0.000977 0.000000
0.001380 0.000968 0.000000
0.001391 0.000963 0.000000
0.001396 0.000965 0.000000
0.001399 0.000956 0.000000
0.001409 0.000948 0.000000
0.001399 0.000942 0.000000
0.001411 0.000936 0.000000
0.001413 0.000940 0.000000
0.001416 0.000934 0.000000
0.001416 0.000928 0.000000
0.000040 0.000445 0.000000
0.000041 0.000450 0.000000
0.000036 0.000461 0.000000
0.000040 0.000458 0.000000
0.000041 0.000463 0.000000
0.000039 0.000468 0.000000
0.000041 0.000473 0.000000
0.000037 0.000477 0.000000
0.000041 0.000488 0.000000
0.000042 0.000491 0.000000
0.000041 0.000497 0.000000
0.000044 0.000498 0.000000
0.001136 0.001042 0.000000
0.001347 0.001031 0.000000
0.001348 0.001020 0.000000
0.001353 0.001002 0.000000
0.001367 0.000998 0.000000
0.001365 0.000992 0.000000
0.001369 0.000991 0.000000
0.001379 0.000979 0.000000
0.001383 0.000971 0.000000
0.001389 0.000971 0.000000
0.001381 0.000976 0.000000
0.001381 0.000957 0.000000
0.001390 0.000953 0.000000
0.001395 0.000949 0.000000
0.001401 0.000954 0.000000
0.001400 0.000949 0.000000
0.001405 0.000944 0.000000
0.001407 0.000939 0.000000
0.001412 0.000932 0.000000
0.001412 0.000925 0.000000
0.000044 0.000445 0.000000
0.000046 0.000450 0.000000
0.000044 0.000455 0.000000
0.000046 0.000461 0.000000
0.000044 0.000467 0.000000
0.000046 0.000474 0.000000
0.000046 0.000478 0.000000
0.000039 0.000483 0.000000
0.000052 0.000485 0.000000
0.000045 0.000483 0.000000
0.000048 0.000493 0.000000
0.000050 0.000498 0.000000
0.001142 0.001045 0.000000
0.001345 0.001041 0.000000
0.001361 0.001014 0.000000
0.001362 0.001000 0.000000
0.001358 0.000998 0.000000
0.001370 0.000984 0.000000
0.001366 0.000982 0.000000
0.001374 0.000981 0.000000
0.001373 0.000971 0.000000
0.001384 0.000967 0.000000
0.001389 0.000966 0.000000
0.001394 0.000954 0.000000
0.001386 0.000959 0.000000
0.001393 0.000948 0.000000
0.001402 0.000945 0.000000
0.001402 0.000938 0.000000
0.001402 0.000934 0.000000
0.001406 0.000933 0.000000
0.001408 0.000929 0.000000
0.001408 0.000923 0.000000
0.000049 0.000445 0.000000
0.000053 0.000450 0.000000
0.000049 0.000454 0.000000
0.000052 0.000455 0.000000
0.000048 0.000465 0.000000
0.000049 0.000471 0.000000
0.000052 0.000468 0.000000
0.000051 0.000478 0.000000
0.000047 0.000488 0.000000
0.000052 0.000491 0.000000
0.000057 0.000492 0.000000
0.000053 0.000498 0.000000
0.001233 0.001068 0.000000
0.001335 0.001039 0.000000
0.001344 0.001027 0.000000
0.001354 0.001005 0.000000
0.001359 0.000991 0.000000
0.001366 0.000987 0.000000
0.001360 0.000986 0.000000
0.001364 0.000981 0.000000
0.001369 0.000971 0.000000
0.001377 0.000972 0.000000
0.001373 0.000967 0.000000
0.001383 0.000962 0.000000
0.001380 0.000951 0.000000
0.001390 0.000959 0.000000
0.001390 0.000944 0.000000
0.001390 0.000936 0.000000
0.001395 0.000941 0.000000
0.001399 0.000931 0.000000
0.001404 0.000926 0.000000
0.001404 0.000920 0.000000
0.000053 0.000445 0.000000
0.000058 0.000451 0.000000
0.000055 0.000462 0.000000
0.000050 0.000460 0.000000
0.000060 0.000466 0.000000
0.000054 0.000473 0.000000
0.000057 0.000476 0.000000
0.000057 0.000480 0.000000
0.000052 0.000483 0.000000
0.000057 0.000486 0.000000
0.000056 0.000497 0.000000
0.000059 0.000496 0.000000
0.001257 0.001067 0.000000
0.001344 0.001042 0.000000
[...]
POINT_DATA 11907
SCALARS density float 1
LOOKUP_TABLE default
4427.491597
4430.067875
4425.607076
4429.036654
4431.821816
4426.629989
4436.365906
4428.175616
4431.235327
4419.564583
4429.600493
4406.378765
4427.511435
4418.711879
4415.159874
4442.381592
4440.027462
4436.403059
4451.716896
4453.052274
4424.906563
4420.194501
4400.908758
4444.722490
4423.102960
4429.925055
4450.679444
4419.269601
4433.546992
4447.713764
4427.754797
4406.300990
4431.654574
4432.078916
4430.198477
4425.748823
4431.989389
4420.849119
4425.894845
4421.661559
4423.503769
4432.431397
4447.964367
4409.141302
4411.352860
4420.877935
4420.717980
4413.624164
4422.204959
4429.499258
4442.903807
4461.429552
4433.919335
4429.998192
4425.876773
4394.234324
4442.022753
4399.143582
4438.024458
4457.693284
4426.528071
4437.045252
4405.077977
4401.039668
4420.619421
4425.599486
4432.391816
4422.005511
4432.336226
4423.307650
4456.022646
4399.066722
4466.028759
4382.993689
4447.611062
4403.222557
4467.401185
4447.900938
4429.424055
4398.231911
4419.140319
4409.129146
4467.138290
4457.071323
4436.830924
4393.370752
4427.338285
4419.414874
4398.600854
4469.057960
4413.416660
4385.079622
4422.868468
4425.897388
4446.943314
4414.247809
4424.869011
4438.540236
4446.275387
4417.237625
4418.425630
4448.676448
4449.110627
4390.657113
4464.587156
4389.557256
4507.671876
4406.500468
4434.591727
4383.259569
4411.434944
4475.582862
4445.919324
4432.547485
4440.688223
4378.137059
4432.819608
4417.607379
4395.975808
4434.606910
4421.452196
4457.292661
4437.975725
4477.038949
4430.580449
4370.043272
4489.218803
4438.836228
4436.232258
4422.179379
4439.595298
4433.251601
4405.733394
4433.304505
4436.249519
4435.632208
4478.511822
4371.929681
4460.764930
4433.043577
4416.975470
4441.369818
4473.358001
4379.824026
4464.589703
4394.309358
4443.291665
4443.074363
4440.727184
4385.689240
4402.098560
4441.579693
4421.529055
4413.326475
4437.109412
4472.792600
4446.308865
4415.347462
4390.834778
4420.283259
4433.483192
4432.272383
4442.474901
4413.337492
4439.857475
4421.199349
4452.570899
4381.861568
4418.485375
4462.676893
4427.325471
4423.247573
4433.570944
4433.557784
4365.962757
4435.014010
4397.794530
4447.173300
4382.975587
4462.135191
4473.130158
4464.944811
4438.246842
4452.924127
4443.375389
4452.850947
4367.249015
4434.027560
4415.792282
4396.992993
4465.793738
4423.843369
4424.061658
4431.201733
4414.369182
4439.051047
4435.292255
4448.056093
4399.414422
4450.454214
4445.363001
4406.223573
4450.349394
4418.389239
4417.721657
4447.537839
4466.892360
4470.349191
4427.372777
4430.037479
4410.184923
4434.703333
4454.220461
4448.498062
4448.804658
4432.997300
4455.726497
4386.192271
4398.911429
4454.501046
4455.701784
4407.860152
4417.540634
4445.299879
4424.664862
4435.090282
4442.283286
4431.941331
4425.363134
4438.434431
4439.681844
4430.403024
4406.797035
4428.153695
4424.336087
4443.746313
4417.436683
4427.045143
4383.474781
4390.529168
4427.292761
4483.613689
4440.203711
4448.208821
4399.467980
4455.890382
4432.007186
4448.069854
4390.567274
4457.929408
4435.284880
4405.649194
4465.814668
4420.492790
4407.670535
4412.135918
4431.133913
4421.839803
4416.001191
4432.714311
4430.814556
4439.018298
4428.758804
4427.422232
4444.244171
4429.051442
4435.749728
4422.289681
4435.096980
4454.084847
4399.924315
4445.344619
4403.696861
4441.000087
4461.539087
4437.012812
4437.318904
4425.982070
4445.088098
4432.861982
4407.315426
4439.164239
4426.455089
4424.129914
4459.849375
4359.143543
4442.175954
4431.070404
4433.263523
4414.178668
4422.785610
4450.299604
4416.446583
4439.128776
4434.663576
4430.144531
4455.573297
4424.479386
4469.457134
4432.453770
4434.235635
4436.477030
4396.069607
4431.552774
4430.801164
4403.963673
4462.185410
4436.282378
4460.761564
4440.825155
4416.769927
4425.765244
4432.104139
4445.757844
4435.633662
4463.459224
4437.946660
4423.350322
4417.154892
4450.931595
4426.032100
4414.929414
4459.394649
4408.230859
4434.870785
4454.627843
4394.253831
4385.200468
4394.049466
4427.287619
4516.253053
4412.566037
4442.196006
4429.677766
4399.111378
4455.148836
4367.711346
4417.017179
4416.992105
4438.463554
4413.746694
4387.377737
4417.739502
4408.093643
4395.888198
4430.212557
4413.954176
4431.619397
4418.906312
4426.374099
4409.084759
4421.023372
4439.811071
4425.990334
4486.620728
4403.185297
4406.445408
4445.472536
4428.119379
4421.685302
4467.951533
4352.329960
4416.708521
4406.200802
4436.777633
4428.148351
4438.704156
4418.593892
4413.600595
4475.558394
4372.366387
4414.457488
4445.693759
4419.243151
4427.337531
4444.225561
4457.618370
4429.182068
4480.462096
4399.815856
4436.199222
4442.199861
4440.723366
4418.159545
4419.271344
4405.516793
4458.717319
4415.826077
4371.256074
4449.057941
4430.214309
4383.843719
4442.437643
4418.378368
4445.966743
4436.151047
4424.255730
4428.224460
4417.365151
4372.090050
4403.459610
4456.967798
4441.715368
4481.066791
4430.991890
4431.181724
4430.485958
4437.562082
4437.468319
4447.179280
4448.305491
4397.736068
4437.173476
4402.860067
4443.206122
4436.114326
4445.647905
4436.046866
4442.839191
4442.132235
4450.533021
4425.330885
4397.903132
4466.496998
4478.782903
4411.147685
4421.278760
4440.798706
4421.447041
4429.928502
4394.013186
4372.426746
4452.960519
4388.376922
4437.811667
4390.206664
4447.637986
4439.945795
4469.678279
4417.132136
4443.100112
4449.260822
4416.603852
4407.211446
4444.786478
4444.999134
4416.645508
4421.590670
4416.971687
4440.523779
4439.868631
4462.085097
4395.866565
4395.328750
4395.851374
4434.261786
4384.711713
4445.447734
4438.058393
4454.889539
4430.280613
4439.017397
4423.691827
4462.650999
4428.657203
4410.721773
4431.953810
4459.576002
4388.988930
4422.147403
4428.915882
4422.507744
4458.709854
4422.917356
4443.383928
4423.570417
4426.852341
4414.769503
4440.195293
4435.617441
4431.424773
4437.418665
4404.670489
4452.069170
4409.299598
4459.396181
4451.224278
4446.043682
4447.216786
4380.621763
4395.034421
4452.638625
4427.628790
4430.090298
4432.616190
4443.165697
4445.101901
4446.246428
4416.364791
4457.609717
4392.979656
4414.561267
4419.630056
4418.937532
4397.355476
4432.391071
4417.955282
4428.184229
4450.104717
4394.230040
4442.715313
4420.386826
4430.984586
4434.831253
4437.065817
4407.204553
4457.607362
4379.339361
4442.339094
4445.484904
4419.913232
4376.336487
4417.323701
4426.442466
4422.699761
4423.110200
4433.013824
4439.797674
4466.344487
4398.522718
4408.335701
4411.665249
4421.961616
4450.070552
4401.281570
4479.584575
4417.547718
4421.457918
4447.505955
4399.518218
4433.367772
4444.136295
4428.300891
4440.062083
4438.016987
4426.059667
4440.204763
4427.730614
4463.310623
4389.281897
4434.994973
4442.507799
4377.614259
4505.947118
4436.342037
4454.382666
4428.993957
4428.535340
4445.241745
4437.559888
4476.597947
4416.530811
4479.349921
4486.085137
4441.124700
4449.558889
4418.815925
4414.420088
4442.854473
4393.417477
4418.601421
4447.164946
4438.759918
4433.287424
4430.146605
4426.768634
4405.162364
4422.337206
4441.667150
4427.492824
4458.079336
4467.404898
4462.205092
4458.269254
4445.697317
4437.741760
4400.633480
4426.710436
4419.983478
4422.166801
4429.104333
4450.897180
4420.013936
4446.568749
4430.991749
4443.440782
4420.621710
4452.244137
4449.658675
4384.459899
4444.354162
4438.360958
4441.972001
4425.089415
4429.431042
4406.354654
4429.202485
4429.848623
4457.487963
4409.434287
4422.935452
4426.279556
4410.854093
4392.509556
4435.648735
4436.415865
4447.144219
4424.016834
4424.124217
4434.822154
4420.297625
4440.852095
4444.944568
4475.309603
4436.250199
4467.881106
4438.343546
4406.898831
4482.719462
4429.213827
4390.074416
4415.282564
4398.874115
4412.867246
4432.604199
4423.334770
4429.895987
4440.902244
4446.656656
4435.454502
4433.338225
4439.998678
4437.596055
4423.901126
4429.832401
4437.743303
4387.809262
4398.259574
4467.524851
4463.447285
4403.088314
4488.044533
4424.147086
4417.935022
4422.132680
4471.338078
4438.301280
4425.646703
4356.161156
4437.784914
4400.387195
4440.648211
4473.019143
4428.612414
4468.759276
4458.034586
4444.736641
4420.885359
4445.938540
4407.809195
4418.216518
4433.509748
4443.180414
4426.832045
4452.677056
4409.427115
4434.105140
4402.102793
4439.905383
4425.510991
4440.373388
4375.915341
4431.321369
4434.213986
4432.432670
4417.598465
4434.791043
4434.100830
4448.397199
4422.550344
4451.078053
4432.177303
4427.832002
4351.967615
4469.344637
4444.437773
4436.182539
4423.054194
4408.602449
4448.654041
4398.346591
4440.467148
4435.314966
4437.816787
4411.202605
4438.648255
4416.371357
4423.247346
4457.327638
4424.671186
4443.269099
4457.933495
4440.438150
4421.741505
4414.267284
4450.497668
4432.661444
4461.332473
4386.340001
4451.733715
4433.522304
4440.184336
4427.814611
4443.155290
4444.574933
4401.869211
4350.564780
4486.989864
4426.514486
4413.585874
4396.436304
4426.878713
4433.356082
4440.569429
4414.291721
4423.964795
4435.490376
4420.451196
4432.047303
4433.357651
4414.382777
4425.354422
4396.536248
4402.034392
4412.913275
4440.725956
4430.311073
4426.639309
4451.189621
4427.021309
4436.966448
4403.499619
4356.291719
4392.168235
4422.546130
4380.760263
4373.752571
4452.677284
4437.464225
4379.822826
4440.184373
4426.186015
4424.741255
4424.143440
4420.803763
4449.260091
4440.986766
4423.668996
4428.225503
4430.402929
4430.673287
4430.861992
4430.745593
4430.228106
4429.835381
4429.422608
4429.566283
4430.268572
4431.473689
4431.975101
4431.651753
4431.233989
4430.641133
4429.054945
4429.998145
4428.985171
4428.693844
4429.433241
4430.574519
4432.131794
4433.220331
4433.591226
4432.182576
4429.646284
4428.296831
4428.913871
4430.344096
4430.797053
4429.345388
4430.006167
4431.294018
4431.821406
4431.542907
4430.136177
4428.770289
4427.354458
4427.233185
4428.587794
4431.925751
4433.464459
4432.076205
4430.506836
4428.820143
4429.911266
4429.794447
4428.651705
4428.100440
4428.618820
4430.160038
4431.660928
4433.547977
4433.550066
4432.354604
4428.804646
4426.740446
4427.111046
4428.744015
4429.057685
4429.782492
4429.704912
4431.326401
4431.793408
4431.467395
4429.929456
4428.454724
4426.505323
4426.548187
4427.740047
4431.200656
4433.193927
4432.297149
4429.481914
4429.961579
4429.802854
4429.503427
4428.834986
4427.267391
4428.884137
4429.246143
4431.863111
4432.556651
4433.980926
4430.915174
4429.494479
4425.363932
4428.035887
4428.354212
4429.545110
4429.642228
4429.548423
4431.260479
4431.597173
4431.342774
4429.560441
4428.214611
4426.074703
4426.145162
4427.480496
4430.439254
4432.904132
4431.772244
4428.843036
4428.741943
4429.599905
4429.585336
4428.470357
4427.483959
4428.120265
4429.622353
4430.924935
4432.919006
4432.959155
4431.267574
4428.516997
4425.415725
4426.565597
4427.886735
4429.111635
4429.030617
4429.804290
4430.672655
4431.663308
4431.099616
4429.344787
4427.966384
4425.771530
4425.956065
4426.976522
4430.234196
4432.566144
4431.770504
4429.505575
4429.584340
4429.430469
4429.464511
4428.331424
4427.293799
4427.965067
4429.328410
4430.815616
4432.472052
4432.730974
4430.864646
4428.293850
4425.155344
4426.855672
4427.613812
4429.973930
4429.040886
4429.567542
4430.769347
4431.440675
4430.812629
4429.367840
4427.333515
4425.931748
4425.671160
4426.659878
4429.845919
4432.127778
4430.895062
4427.580899
4423.963090
4429.287381
4429.475922
4428.068608
4427.115547
4427.808074
4428.915162
4430.855404
4432.106719
4432.522518
4430.809387
4427.773325
4425.139141
4425.424069
4427.036571
4428.473521
4428.935869
4429.368573
4430.688843
4431.274457
4430.589094
4429.229353
4427.189058
4425.712965
4425.780640
4426.396974
4429.662051
4432.458582
4431.339622
4428.641603
4428.360455
4457.998117
4438.334366
4420.264632
4437.072801
4447.094747
4463.017200
4431.163670
4415.505683
4407.730718
4455.773393
4468.968389
4397.276864
4463.546904
4485.092852
4426.871087
4414.710112
4429.067358
4429.266940
4428.161149
4426.571476
4427.916867
4428.552074
4430.752102
4431.982873
4432.182059
4430.522646
4428.521478
4424.474203
4427.771142
4428.768695
4431.143609
4431.420199
4414.644816
4429.013679
4418.944612
4416.733965
4443.123165
4437.644651
4442.014281
4397.704688
4387.141879
4437.750769
4413.427485
4434.882103
4359.281136
4470.803540
4407.850575
4428.538745
4429.211155
4430.507227
4430.991299
4430.685638
4428.677354
4427.614997
4425.015327
4426.414088
4426.028224
4429.399711
4432.961295
4430.877322
4428.593163
4429.133474
4447.139532
4452.016499
4412.098601
4440.754192
4400.290133
4445.518486
4411.285822
4437.304410
4417.839486
4436.168208
4456.764608
4420.304994
4413.249973
4455.832765
4420.427989
4414.658693
4428.871074
4429.291078
4427.917344
4426.584409
4427.523023
4428.937485
4430.085990
4432.384929
4431.061230
4430.944952
4428.293596
4424.178909
4427.470835
4426.919335
4428.895879
4440.439668
4424.079627
4442.967647
4409.900199
4406.070614
4444.511299
4437.414040
4415.298673
4417.202291
4418.173414
4438.692948
4443.386416
4412.641610
4412.206700
4440.014571
4451.612532
4428.466944
4429.440480
4430.020561
4431.239894
4430.323351
4428.950356
4427.240171
4425.266908
4426.193991
4425.817631
4429.034347
4433.072652
4429.911102
4428.226857
4427.372794
4444.411228
4448.584567
4417.883880
4459.770099
4427.301751
4438.457387
4438.561891
4471.068064
4431.805965
4452.341304
4391.821885
4427.892928
4455.601611
4416.725075
4435.894473
4419.250096
4428.507370
4429.335109
4427.667533
4426.805855
4427.141839
4429.247054
4429.888412
4432.339356
4430.767612
4430.819554
4428.188481
4424.295855
4427.433516
4427.577841
4426.030269
4432.926679
4441.368488
4442.883251
4403.203692
4482.024786
4400.408223
4422.568831
4448.431404
4471.721025
4387.090694
4427.694174
4445.663609
4432.976156
4420.841983
4453.662798
4421.344939
4428.540410
4429.597833
4429.749938
4431.342630
4430.071812
4429.208611
4426.735345
4426.005408
4425.801106
4426.283305
4428.380036
4433.601730
4428.817588
4429.506373
4428.920111
4431.158287
4409.838712
4442.951944
4429.628488
4337.767550
4437.734652
4426.111709
4425.311983
4405.594857
4444.414918
4443.112483
4442.418231
4442.761401
4404.305630
4466.755220
4419.450319
4428.358834
4429.304115
4427.496745
4426.816304
4426.909355
4429.108168
4429.792392
4432.264756
4430.623630
4430.966853
4428.193093
4424.910194
4427.605803
4428.083622
4426.605099
4431.320063
4413.072025
4372.605348
4384.576948
4395.607516
4480.377137
4437.125571
4423.339140
4425.589759
4449.349078
4430.946512
4384.972079
4412.824419
4378.309161
4467.865540
4414.216423
4428.423144
4429.264666
4429.939076
4430.832146
4430.374202
4428.585490
4427.161535
4425.747896
4426.823951
4425.691915
4429.037377
4433.230817
4430.500624
4429.584008
4429.359505
4432.909999
4453.488293
4395.332600
4415.322680
4443.399420
4435.483121
4431.684686
4425.330399
4485.703261
4458.107102
4374.180208
4389.412128
4450.062986
4394.772948
4436.904558
4409.023319
4428.369191
4428.890679
4427.845453
4426.325142
4427.282991
4428.504649
4430.063073
4431.800017
4430.878878
4430.605360
4428.523953
4425.015966
4428.103635
4427.409333
4429.421879
4443.077308
4429.945463
4428.325439
4444.660888
4380.009401
4417.574614
4429.757373
4439.934556
4382.399169
4445.771170
4454.249012
4504.314320
4425.079639
4402.314231
4427.021801
4442.603758
4428.284505
4429.180774
4429.770429
4430.734086
4430.333260
4428.429841
4427.120151
4426.116168
4426.992848
4425.556082
4428.555906
4433.120861
4430.430560
4429.401052
4428.023943
4421.109754
4444.907486
4407.033833
4442.755993
4454.628226
4434.623744
4451.950169
4473.811999
4409.843760
4446.546330
4428.928512
4439.047357
4468.462830
4398.453607
4462.074316
4408.312008
4428.225790
4429.104724
4427.460000
4426.856977
4426.586079
4429.089176
4429.335941
4431.936364
4430.483743
4430.505866
4427.816962
4424.862663
4426.044681
4426.716318
4424.990585
4429.144783
4479.886247
4453.018935
4372.080652
4457.934452
4429.302666
4447.164181
4415.875358
4464.938683
4448.869613
4419.461446
4413.371820
4448.204578
4416.943696
4412.999727
4419.915262
4428.129347
4429.473479
4429.228341
4431.033072
4430.255393
4428.429465
4426.988979
4426.717804
4426.532847
4425.698384
4427.593649
4432.692287
4428.709332
4427.709193
4425.516805
4428.905098
4411.788570
4431.988642
4454.341750
4414.478846
4444.449149
4448.180005
4432.718102
4439.458749
4441.047305
4444.867759
4409.631664
4418.181200
4377.973748
4467.117816
4444.431095
4428.028096
4429.234128
4427.346206
4427.063301
4426.345363
4429.399691
4429.043072
4431.905044
4430.097191
4430.356932
4427.363551
4424.867063
4425.609574
4425.904883
4426.760948
4406.032073
4445.401424
4401.189917
4434.307069
4449.023610
4430.326838
4430.275480
4424.232088
4406.656574
4444.737447
4431.291956
4421.694496
4391.264633
4425.905880
4390.112273
4447.624116
4427.981863
4429.571477
4429.008646
4431.292880
4429.918674
4428.497367
4426.743991
4427.235346
4426.447553
4425.888066
4427.386404
4432.244864
4428.906477
4427.438821
4425.279716
4435.078634
4418.975651
4409.707552
4443.378894
4384.424938
4408.006027
4424.551673
4447.181812
4444.924802
4422.131812
4425.195363
4402.470041
4446.221654
4473.089233
4416.971542
4401.719766
4428.222939
4429.101798
4427.611128
4426.729194
4426.786195
4428.677854
4429.292158
4432.039353
4429.956703
4430.377595
4427.612024
4425.318468
4425.626887
4425.942135
4424.921404
4420.354482
4408.335843
4432.918236
4411.230442
4414.664311
4441.721145
4422.104599
4429.995210
4420.314007
4448.468666
4498.760406
4399.807091
4451.410442
4428.713952
4446.142584
4427.367730
4428.183133
4429.251508
4429.409266
4430.956708
4429.880725
4428.388272
4427.054671
4427.016953
4427.523813
4425.735729
4427.130413
4432.645988
4429.573315
4427.778391
4426.788925
4437.001033
4421.525112
4441.950191
4440.168743
4392.569670
4431.639089
4450.924186
4434.449307
4455.883147
4405.114772
4475.257119
4445.593176
4410.703867
4432.105316
4394.333649
4427.333783
4428.539400
4429.184355
4427.640880
4426.846714
4426.689316
4428.507286
4429.353978
4431.928951
4430.236150
4429.926273
4428.320111
4424.955301
4426.536575
4425.580850
4426.304056
4448.242865
4453.879392
4430.604666
4451.084243
4382.579732
4417.732383
4442.933272
4385.819659
4466.680397
4442.744612
4446.960280
4471.549724
4439.126146
4432.912124
4410.565066
4413.949978
4428.312141
4428.982411
4429.568844
4430.469897
4430.633786
4427.530716
4427.875477
4426.814863
4428.149135
4425.175924
4427.380953
4433.071560
4428.541729
4427.030569
4426.604209
4444.250110
4444.115796
4394.615918
4464.526770
4389.640174
4436.267337
4438.305099
4429.217944
4466.021466
4449.452130
4473.442426
4404.856589
4408.371777
4456.699633
4366.693165
4429.267272
4428.417102
4429.548688
4427.492510
4427.327991
4426.113785
4429.651795
4428.778936
4431.916253
4430.888467
4430.239045
4427.551616
4425.725291
4425.367967
4424.770309
4424.929933
4423.265956
4429.543149
4418.625386
4389.683772
4434.329592
4442.340078
4446.436582
4414.836100
4385.257540
4446.701970
4403.522014
4432.493635
4442.598071
4402.864789
4397.763094
4443.853059
4428.293977
4429.560938
4428.509160
4431.702613
4430.176775
4428.572992
4427.505406
4428.864651
4426.812071
4425.596827
4428.256648
4431.690365
4428.271639
4427.730677
4425.790499
4419.523346
4402.765198
4420.024981
4427.247462
4459.204289
4414.948751
4434.827720
4499.698590
4418.048059
4398.455752
4431.168680
4404.388730
4482.715568
4423.800106
4557.016134
4413.754212
4428.416089
4429.381604
4428.143157
4427.007981
4426.886033
4429.194949
4428.679240
4432.282964
4430.738147
4429.809553
4427.280733
4427.239873
4425.839921
4426.239188
4422.779901
4443.389464
4425.123574
4442.451549
4431.112666
4464.924186
4461.980956
4441.993968
4447.890906
4473.583011
4437.487696
4442.835572
4439.399277
4453.510923
4439.536197
4281.354721
4427.947406
4428.702711
4429.751301
4428.567426
4431.700914
4429.739256
4428.511072
4426.895068
4429.167030
4426.207904
4426.849307
4428.180213
4431.026021
4427.478981
4427.798400
4424.719944
4423.675480
4374.277829
4377.383723
4403.729026
4444.854862
4413.080161
4437.840873
4441.857537
4440.172923
4433.466968
4399.672173
4443.763500
4443.166459
4428.090385
4386.616584
4405.867020