# vtk DataFile Version 2.0
mfree iwf
ASCII

DATASET UNSTRUCTURED_GRID
POINTS 8247 float
0.000001 0.000446 0.000000
0.000001 0.000451 0.000000
0.000001 0.000456 0.000000
0.000002 0.000461 0.000000
0.000002 0.000466 0.000000
0.000002 0.000471 0.000000
0.000002 0.000476 0.000000
0.000002 0.000481 0.000000
0.000002 0.000486 0.000000
0.000002 0.000491 0.000000
0.000002 0.000496 0.000000
0.000004 0.000501 0.000000
0.000051 0.000512 0.000000
0.000051 0.000522 0.000000
0.000051 0.000524 0.000000
0.000051 0.000533 0.000000
0.000051 0.000533 0.000000
0.000051 0.000540 0.000000
0.000051 0.000544 0.000000
0.000051 0.000550 0.000000
0.000051 0.000554 0.000000
0.000051 0.000560 0.000000
0.000051 0.000565 0.000000
0.000051 0.000569 0.000000
0.000051 0.000574 0.000000
0.000051 0.000579 0.000000
0.000051 0.000584 0.000000
0.000051 0.000590 0.000000
0.000051 0.000595 0.000000
0.000051 0.000600 0.000000
0.000051 0.000609 0.000000
0.000051 0.000634 0.000000
0.000006 0.000446 0.000000
0.000007 0.000451 0.000000
0.000006 0.000456 0.000000
0.000007 0.000461 0.000000
0.000007 0.000466 0.000000
0.000007 0.000471 0.000000
0.000007 0.000476 0.000000
0.000007 0.000480 0.000000
0.000007 0.000486 0.000000
0.000008 0.000490 0.000000
0.000005 0.000496 0.000000
0.000008 0.000499 0.000000
0.000055 0.000520 0.000000
0.000056 0.000525 0.000000
0.000057 0.000533 0.000000
0.000056 0.000539 0.000000
0.000056 0.000546 0.000000
0.000056 0.000551 0.000000
0.000056 0.000557 0.000000
0.000056 0.000562 0.000000
0.000056 0.000568 0.000000
0.000056 0.000574 0.000000
0.000056 0.000580 0.000000
0.000056 0.000585 0.000000
0.000056 0.000591 0.000000
0.000056 0.000598 0.000000
0.000055 0.000604 0.000000
0.000055 0.000608 0.000000
0.000052 0.000618 0.000000
0.000051 0.000622 0.000000
0.000051 0.000620 0.000000
0.000051 0.000630 0.000000
0.000011 0.000446 0.000000
0.000012 0.000450 0.000000
0.000011 0.000456 0.000000
0.000012 0.000460 0.000000
0.000011 0.000466 0.000000
0.000012 0.000470 0.000000
0.000011 0.000476 0.000000
0.000013 0.000480 0.000000
0.000011 0.000486 0.000000
0.000013 0.000490 0.000000
0.000011 0.000497 0.000000
0.000013 0.000498 0.000000
0.000060 0.000517 0.000000
0.000062 0.000521 0.000000
0.000059 0.000529 0.000000
0.000061 0.000535 0.000000
0.000060 0.000540 0.000000
0.000060 0.000543 0.000000
0.000062 0.000548 0.000000
0.000060 0.000555 0.000000
0.000062 0.000559 0.000000
0.000060 0.000565 0.000000
0.000062 0.000569 0.000000
0.000060 0.000576 0.000000
0.000062 0.000581 0.000000
0.000061 0.000587 0.000000
0.000059 0.000593 0.000000
0.000059 0.000601 0.000000
0.000057 0.000612 0.000000
0.000056 0.000617 0.000000
0.000054 0.000625 0.000000
0.000056 0.000632 0.000000
0.000016 0.000446 0.000000
0.000017 0.000450 0.000000
0.000016 0.000456 0.000000
0.000018 0.000460 0.000000
0.000016 0.000466 0.000000
0.000018 0.000470 0.000000
0.000016 0.000476 0.000000
0.000018 0.000480 0.000000
0.000016 0.000486 0.000000
0.000018 0.000490 0.000000
0.000016 0.000496 0.000000
0.000019 0.000498 0.000000
0.000027 0.000500 0.000000
0.000062 0.000528 0.000000
0.000064 0.000532 0.000000
0.000066 0.000538 0.000000
0.000067 0.000546 0.000000
0.000063 0.000551 0.000000
0.000068 0.000557 0.000000
0.000062 0.000562 0.000000
0.000068 0.000568 0.000000
0.000062 0.000573 0.000000
0.000067 0.000580 0.000000
0.000061 0.000584 0.000000
0.000063 0.000592 0.000000
0.000062 0.000597 0.000000
0.000062 0.000604 0.000000
0.000061 0.000608 0.000000
0.000060 0.000612 0.000000
0.000060 0.000621 0.000000
0.000059 0.000625 0.000000
0.000060 0.000632 0.000000
0.000021 0.000446 0.000000
0.000022 0.000450 0.000000
0.000021 0.000456 0.000000
0.000022 0.000460 0.000000
0.000020 0.000466 0.000000
0.000023 0.000470 0.000000
0.000021 0.000476 0.000000
0.000023 0.000480 0.000000
0.000021 0.000486 0.000000
0.000023 0.000490 0.000000
0.000022 0.000498 0.000000
0.000024 0.000499 0.000000
0.000041 0.000500 0.000000
0.000070 0.000525 0.000000
0.000071 0.000530 0.000000
0.000070 0.000537 0.000000
0.000067 0.000543 0.000000
0.000071 0.000546 0.000000
0.000068 0.000554 0.000000
0.000070 0.000560 0.000000
0.000068 0.000564 0.000000
0.000069 0.000572 0.000000
0.000068 0.000576 0.000000
0.000068 0.000585 0.000000
0.000069 0.000588 0.000000
0.000067 0.000596 0.000000
0.000067 0.000600 0.000000
0.000067 0.000610 0.000000
0.000064 0.000616 0.000000
0.000065 0.000621 0.000000
0.000063 0.000625 0.000000
0.000064 0.000632 0.000000
0.000026 0.000445 0.000000
0.000027 0.000450 0.000000
0.000025 0.000456 0.000000
0.000028 0.000460 0.000000
0.000026 0.000465 0.000000
0.000027 0.000470 0.000000
0.000026 0.000476 0.000000
0.000028 0.000480 0.000000
0.000026 0.000485 0.000000
0.000028 0.000490 0.000000
0.000028 0.000493 0.000000
0.000029 0.000500 0.000000
0.000056 0.000518 0.000000
0.000065 0.000524 0.000000
0.000069 0.000531 0.000000
0.000073 0.000538 0.000000
0.000075 0.000543 0.000000
0.000072 0.000551 0.000000
0.000075 0.000555 0.000000
0.000074 0.000561 0.000000
0.000073 0.000567 0.000000
0.000074 0.000573 0.000000
0.000071 0.000579 0.000000
0.000073 0.000585 0.000000
0.000070 0.000592 0.000000
0.000072 0.000600 0.000000
0.000068 0.000605 0.000000
0.000070 0.000608 0.000000
0.000067 0.000615 0.000000
0.000070 0.000619 0.000000
0.000069 0.000626 0.000000
0.000068 0.000632 0.000000
0.000031 0.000445 0.000000
0.000032 0.000450 0.000000
0.000031 0.000455 0.000000
0.000032 0.000460 0.000000
0.000031 0.000466 0.000000
0.000033 0.000470 0.000000
0.000031 0.000475 0.000000
0.000032 0.000480 0.000000
0.000032 0.000485 0.000000
0.000033 0.000491 0.000000
0.000035 0.000498 0.000000
0.000032 0.000499 0.000000
0.000049 0.000501 0.000000
0.000071 0.000521 0.000000
0.000079 0.000532 0.000000
0.000077 0.000538 0.000000
0.000078 0.000547 0.000000
0.000079 0.000550 0.000000
0.000078 0.000557 0.000000
0.000077 0.000564 0.000000
0.000078 0.000568 0.000000
0.000076 0.000576 0.000000
0.000078 0.000580 0.000000
0.000076 0.000589 0.000000
0.000076 0.000593 0.000000
0.000074 0.000597 0.000000
0.000075 0.000604 0.000000
0.000074 0.000611 0.000000
0.000075 0.000617 0.000000
0.000072 0.000622 0.000000
0.000073 0.000626 0.000000
0.000073 0.000632 0.000000
0.000036 0.000445 0.000000
0.000037 0.000450 0.000000
0.000037 0.000455 0.000000
0.000036 0.000461 0.000000
0.000038 0.000465 0.000000
0.000036 0.000470 0.000000
0.000036 0.000476 0.000000
0.000038 0.000480 0.000000
0.000037 0.000486 0.000000
0.000037 0.000489 0.000000
0.000039 0.000492 0.000000
0.000038 0.000499 0.000000
0.000054 0.000508 0.000000
0.000058 0.000512 0.000000
0.000077 0.000530 0.000000
0.000081 0.000538 0.000000
0.000082 0.000543 0.000000
0.000083 0.000550 0.000000
0.000081 0.000558 0.000000
0.000083 0.000562 0.000000
0.000080 0.000571 0.000000
0.000082 0.000574 0.000000
0.000079 0.000584 0.000000
0.000081 0.000586 0.000000
0.000079 0.000594 0.000000
0.000080 0.000600 0.000000
0.000077 0.000606 0.000000
0.000080 0.000610 0.000000
0.000077 0.000615 0.000000
0.000079 0.000621 0.000000
0.000078 0.000626 0.000000
0.000078 0.000632 0.000000
0.000041 0.000445 0.000000
0.000042 0.000450 0.000000
0.000041 0.000456 0.000000
0.000042 0.000460 0.000000
0.000042 0.000466 0.000000
0.000041 0.000471 0.000000
0.000044 0.000474 0.000000
0.000041 0.000479 0.000000
0.000042 0.000485 0.000000
0.000044 0.000491 0.000000
0.000043 0.000497 0.000000
0.000047 0.000498 0.000000
0.000051 0.000504 0.000000
0.000065 0.000518 0.000000
0.000083 0.000530 0.000000
0.000086 0.000538 0.000000
0.000085 0.000545 0.000000
0.000086 0.000553 0.000000
0.000086 0.000558 0.000000
0.000085 0.000565 0.000000
0.000086 0.000570 0.000000
0.000084 0.000578 0.000000
0.000085 0.000582 0.000000
0.000084 0.000589 0.000000
0.000084 0.000594 0.000000
0.000083 0.000600 0.000000
0.000084 0.000605 0.000000
0.000083 0.000611 0.000000
0.000083 0.000617 0.000000
0.000083 0.000622 0.000000
0.000082 0.000627 0.000000
0.000082 0.000632 0.000000
0.000046 0.000445 0.000000
0.000047 0.000450 0.000000
0.000046 0.000455 0.000000
0.000047 0.000460 0.000000
0.000046 0.000466 0.000000
0.000048 0.000470 0.000000
0.000046 0.000476 0.000000
0.000046 0.000482 0.000000
0.000050 0.000483 0.000000
0.000047 0.000489 0.000000
0.000049 0.000493 0.000000
0.000053 0.000497 0.000000
0.000056 0.000506 0.000000
0.000062 0.000513 0.000000
0.000076 0.000526 0.000000
0.000090 0.000540 0.000000
0.000089 0.000545 0.000000
0.000090 0.000552 0.000000
0.000089 0.000559 0.000000
0.000090 0.000565 0.000000
0.000089 0.000572 0.000000
0.000089 0.000577 0.000000
0.000089 0.000584 0.000000
0.000088 0.000590 0.000000
0.000089 0.000594 0.000000
0.000088 0.000600 0.000000
0.000088 0.000606 0.000000
0.000087 0.000611 0.000000
0.000088 0.000616 0.000000
0.000087 0.000621 0.000000
0.000088 0.000627 0.000000
0.000087 0.000632 0.000000
0.000051 0.000445 0.000000
0.000052 0.000450 0.000000
0.000050 0.000456 0.000000
0.000053 0.000460 0.000000
0.000051 0.000465 0.000000
0.000053 0.000470 0.000000
0.000051 0.000475 0.000000
0.000053 0.000480 0.000000
0.000050 0.000487 0.000000
0.000054 0.000491 0.000000
0.000057 0.000493 0.000000
0.000057 0.000502 0.000000
0.000062 0.000503 0.000000
0.000065 0.000511 0.000000
0.000077 0.000521 0.000000
0.000086 0.000533 0.000000
0.000092 0.000545 0.000000
0.000093 0.000552 0.000000
0.000094 0.000558 0.000000
0.000093 0.000565 0.000000
0.000094 0.000571 0.000000
0.000093 0.000577 0.000000
0.000093 0.000583 0.000000
0.000093 0.000589 0.000000
0.000092 0.000595 0.000000
0.000093 0.000601 0.000000
0.000091 0.000606 0.000000
0.000094 0.000611 0.000000
0.000092 0.000617 0.000000
0.000093 0.000622 0.000000
0.000092 0.000627 0.000000
0.000092 0.000632 0.000000
0.000056 0.000445 0.000000
0.000057 0.000450 0.000000
0.000056 0.000455 0.000000
0.000057 0.000460 0.000000
0.000056 0.000465 0.000000
0.000058 0.000470 0.000000
0.000056 0.000475 0.000000
0.000058 0.000480 0.000000
0.000056 0.000485 0.000000
0.000060 0.000489 0.000000
0.000058 0.000497 0.000000
0.000063 0.000498 0.000000
0.000064 0.000507 0.000000
0.000068 0.000514 0.000000
0.000072 0.000517 0.000000
[...]
POINT_DATA 8247
SCALARS density float 1
LOOKUP_TABLE default
4421.346187
4425.473264
4422.827144
4425.760283
4430.685494
4424.720470
4430.580678
4426.134163
4440.262632
4423.705211
4435.957353
4397.910248
4693.515317
4428.027172
4613.485793
4470.754302
4489.886135
4518.934311
4515.489359
4523.349394
4523.087720
4527.964101
4514.410162
4525.543553
4520.977580
4507.509555
4530.964906
4503.378800
4535.369783
4536.362356
4640.514033
4439.623743
4426.567898
4427.322439
4425.748477
4425.170193
4422.856406
4417.901739
4432.947069
4432.528589
4414.933629
4420.900539
4444.625115
4396.615459
4437.360717
4428.596799
4452.294769
4439.884015
4447.474469
4456.869445
4448.270674
4440.378724
4441.417967
4429.626023
4429.734229
4433.565466
4422.611744
4403.273887
4408.745415
4404.294113
4422.546565
4399.874556
4567.326654
4524.567258
4425.134523
4416.098787
4433.136181
4422.999949
4442.790806
4419.458994
4446.233724
4380.500979
4466.065323
4365.975706
4478.849844
4407.017866
4513.095989
4484.785390
4474.779674
4452.448686
4474.848020
4461.238323
4459.450474
4469.517060
4456.376676
4494.528267
4431.241432
4499.574574
4428.570174
4465.853637
4474.554694
4506.089634
4413.585220
4479.077370
4398.447342
4464.760718
4422.315880
4433.120481
4439.921840
4431.119239
4439.854849
4412.428597
4450.105808
4410.795445
4476.325735
4386.183472
4511.376130
4397.606630
4429.200123
4435.949437
4463.320996
4448.951079
4452.667438
4464.633256
4464.832454
4460.632118
4465.174473
4467.096492
4441.831241
4481.613528
4423.973188
4463.841337
4430.177222
4476.874184
4470.799636
4427.231756
4456.597495
4460.978918
4423.384375
4437.835823
4451.842455
4419.410505
4436.577738
4441.571882
4443.893080
4417.776263
4451.818850
4367.545119
4470.011735
4423.635881
4407.842595
4419.227821
4469.310889
4460.672358
4461.887365
4466.912632
4452.285020
4462.438800
4441.772095
4463.869128
4455.895531
4457.167187
4465.727815
4469.299181
4449.203115
4453.809899
4416.452652
4469.850602
4451.048991
4455.760216
4433.690982
4441.968665
4403.443904
4452.035465
4454.216996
4410.402306
4430.304864
4431.101663
4436.622595
4469.868598
4451.056082
4421.643225
4444.777470
4481.319539
4466.219380
4439.207482
4436.086897
4441.863587
4458.178835
4451.549165
4465.195578
4435.265291
4473.607816
4445.072704
4442.924640
4466.957675
4427.730139
4467.201457
4453.313725
4455.585024
4441.670915
4455.221496
4425.709141
4428.102592
4435.947664
4444.503896
4401.857244
4449.894430
4452.735627
4424.448106
4408.997695
4363.538826
4463.556581
4409.381218
4737.372189
4503.266947
4461.056824
4481.951967
4452.790681
4462.283726
4452.419252
4464.013419
4441.629430
4459.028216
4433.452420
4449.941562
4457.876474
4431.102394
4455.164690
4416.323145
4460.751340
4433.644281
4457.388871
4452.823954
4434.837170
4429.699598
4415.746075
4410.198240
4432.025372
4455.398036
4391.884886
4426.817042
4466.213610
4436.524963
4450.776008
4459.425182
4373.347055
4445.459681
4447.633759
4457.363986
4449.867537
4457.912708
4458.723234
4461.085845
4478.047864
4463.602346
4473.683016
4459.261346
4468.724510
4436.053393
4460.335500
4452.627209
4454.333683
4440.476534
4460.371950
4444.791559
4428.298450
4429.790119
4431.055170
4434.367421
4438.780911
4396.503304
4432.801385
4460.347362
4377.471504
4428.631199
4456.886231
4355.437302
4339.233828
4382.565458
4419.681729
4466.163451
4471.439042
4436.589443
4481.373967
4422.334002
4461.681392
4417.405865
4461.796859
4421.974540
4457.452359
4458.671854
4442.995767
4453.086204
4443.262623
4452.773448
4446.003447
4445.056649
4438.379454
4436.854397
4429.742419
4416.490709
4408.406400
4433.448270
4455.406373
4382.736234
4447.862175
4437.977709
4464.577417
4427.323853
4563.059856
4458.541284
4471.760750
4435.344490
4460.912912
4454.254246
4452.378030
4463.194328
4452.064022
4460.378771
4453.712924
4457.760325
4463.639914
4436.510686
4460.618522
4440.780252
4461.900788
4442.467957
4449.586331
4447.893861
4435.811418
4439.348981
4402.199991
4445.428990
4425.444055
4426.297446
4379.427885
4446.042139
4448.892763
4416.488805
4464.275732
4512.153172
4440.058405
4491.044857
4384.922122
4491.858192
4463.389986
4476.115261
4438.542980
4464.893560
4428.013584
4459.554289
4436.369808
4449.362312
4441.961954
4456.350325
4450.013812
4441.666452
4446.432772
4445.004566
4447.931764
4445.521047
4442.498450
4436.477438
4431.118813
4433.244268
4394.481361
4445.987046
4435.511049
4413.138077
4380.521053
4440.592928
4437.712044
4448.532270
4442.605474
4495.488579
4475.701693
4436.238241
4428.955415
4471.036987
4445.485940
4462.162006
4465.980413
4448.718795
4466.392875
4449.014665
4449.614563
4456.250634
4443.886128
4451.300740
4444.537021
4450.144086
4447.792263
4442.628382
4434.249252
4422.034045
4426.618394
4424.242613
4439.454170
4437.107098
4386.221134
4442.872521
4462.594810
4433.222300
4432.590129
4474.556542
4456.929800
4437.875582
4493.121577
4467.556147
4480.043569
4462.074435
4461.051803
4459.274657
4441.491915
4462.443929
4438.908237
4448.213451
4450.926600
4442.728055
4455.972419
4445.604347
4452.674559
4445.480826
4444.507464
4447.110829
4442.380024
4435.258348
4433.604675
4431.526076
4439.526792
4411.916615
4448.799804
4454.067155
4377.643085
4458.009277
4435.032777
4447.075471
4475.756960
4443.604919
4491.488796
4480.411982
4461.501934
4459.605792
4449.844742
4460.353590
4454.112554
4451.367114
4453.645583
4452.447034
4449.141445
4452.910142
4447.043069
4449.070383
4447.658110
4448.247909
4446.438315
4442.756212
4430.036187
4426.200824
4423.140864
4425.774208
4403.686337
4440.458925
4427.554607
4387.403606
4454.670967
4457.062807
4434.309678
4420.198945
4452.435444
4447.928443
4461.925807
4428.811710
4440.300124
4457.503797
4473.936755
4464.800533
4458.094731
4451.496047
4450.289483
4449.944585
4446.459492
4446.629919
4447.286388
4449.923417
4447.994326
4444.377943
4446.898538
4441.818282
4441.442951
4443.752399
4422.413528
4438.076096
4443.296444
4418.762767
4402.670841
4443.835200
4441.550209
4424.171248
4458.529707
4452.092111
4457.983669
4434.482434
4436.987373
4453.744051
4475.701303
4443.348418
4460.874500
4453.800317
4451.014039
4452.051805
4453.989745
4448.744756
4456.252360
4445.111621
4452.452626
4443.369798
4451.439871
4446.672169
4444.636529
4442.647863
4429.699427
4432.118631
4433.697765
4425.177738
4399.317706
4444.289886
4447.807375
4405.676466
4398.794751
4461.487537
4466.217928
4441.472931
4462.639777
4459.322988
4434.192499
4469.904843
4449.558050
4450.798578
4453.594437
4470.639696
4458.956856
4462.843712
4447.551105
4451.222715
4447.528361
4450.611297
4447.461376
4448.380454
4448.567625
4444.638285
4446.557637
4442.655146
4447.489941
4431.168545
4434.297981
4424.661719
4455.127597
4411.779660
4413.724167
4425.812063
4466.370206
4400.318618
4403.761447
4464.694115
4434.490247
4457.083367
4444.223326
4455.339407
4447.968695
4471.328089
4445.985799
4452.504394
4452.023297
4454.665212
4461.086219
4458.976402
4453.225818
4448.059759
4452.637065
4445.869675
4449.391057
4444.519354
4443.534666
4439.815395
4429.261838
4428.673645
4426.582795
4440.978720
4414.147506
4425.746439
4429.234357
4451.756353
4397.304564
4452.895724
4466.228884
4423.668250
4450.345207
4429.558175
4429.650781
4446.472902
4463.761188
4436.807317
4465.102939
4456.605852
4461.817105
4461.077437
4455.820859
4458.565053
4448.965597
4455.598374
4446.548556
4450.652181
4444.267327
4447.126464
4444.305319
4442.880037
4446.637845
4430.855670
4441.216079
4420.208364
4436.734985
4444.883661
4430.312017
4435.398745
4412.510625
4452.029629
4391.464670
4460.113402
4471.190269
4444.796164
4454.911494
4450.190309
4440.606553
4459.256975
4457.029703
4443.746163
4459.318540
4457.891959
4466.001891
4461.899759
4453.125276
4455.042325
4448.917136
4450.239743
4446.834352
4445.570891
4440.404081
4440.954773
4415.397215
4429.011174
4427.197210
4442.372856
4433.303089
4417.973666
4413.673072
4423.609733
4455.763226
4407.143640
4433.583237
4466.864335
4405.629028
4459.897938
4429.053713
4432.199593
4436.957677
4429.550622
4462.627102
4454.970870
4446.747822
4447.866460
4457.034405
4461.907806
4452.970685
4460.730277
4451.881509
4452.755098
4443.423333
4449.809004
4438.610462
4441.611072
4449.693337
4429.241234
4433.520122
4423.144720
4414.673490
4441.112232
4449.639579
4422.930058
4445.620883
4407.063435
4451.052689
4403.712582
4487.077166
4451.234581
4443.828540
4455.768944
4457.640872
4462.611159
4426.935575
4446.490697
4446.958889
4459.603923
4450.975833
4455.807910
4455.566628
4459.517106
4444.810472
4459.591882
4442.736496
4450.636663
4438.827548
4440.705328
4423.255821
4434.811678
4442.882490
4427.721042
4426.587819
4427.351154
4404.132102
4442.624663
4433.003370
4452.502809
4432.386896
4443.394173
4453.101763
4399.551861
4476.357833
4418.764719
4450.048676
4434.788214
4422.242147
4462.966243
4453.302481
4455.301741
4455.493251
4438.003404
4453.453802
4464.163547
4456.397270
4449.152147
4456.251788
4443.517784
4442.469963
4437.340790
4443.118058
4443.420240
4424.863948
4439.004439
4446.924312
4417.633348
4438.536544
4440.175992
4426.872364
4448.312469
4395.771971
4441.256111
4426.624742
4465.459810
4446.136610
4431.423698
4454.077945
4442.945104
4453.097157
4424.486346
4466.541578
4426.699946
4458.028405
4468.932739
4452.400238
4458.805618
4446.664360
4450.200222
4447.697833
4444.596221
4443.665072
4437.328560
4392.183400
4422.405901
4421.157531
4422.063590
4423.261278
4423.399711
4424.227617
4424.475290
4425.046923
4425.351841
4425.829231
4426.028117
4426.566969
4427.024045
4428.362240
4399.342355
4418.989705
4418.161187
4419.879028
4421.281211
4421.591312
4422.839058
4423.006877
4424.066143
4424.205762
4425.065216
4425.387683
4426.035295
4425.832749
4430.386047
4406.130881
4419.777715
4417.774776
4420.450171
4421.503739
4422.101268
4423.368542
4423.418093
4424.871587
4424.543544
4426.278431
4425.565058
4427.295499
4426.981618
4430.060894
4410.408535
4421.473429
4419.207646
4421.623601
4422.095383
4423.074455
4423.939051
4424.390140
4425.453289
4425.508797
4426.828902
4426.583808
4428.816751
4427.920555
4433.352542
4414.995565
4422.509240
4421.140472
4422.444342
4423.268983
4423.764712
4424.849521
4425.067311
4426.216535
4426.396418
4427.570172
4427.703356
4429.372485
4428.502594
4433.133518
4417.700084
4423.768097
4422.724366
4423.366499
4424.532285
4424.461489
4425.867031
4425.746856
4427.201096
4426.955674
4428.549553
4428.385520
4430.386530
4430.170404
4432.678957
4420.402595
4424.995574
4424.100823
4424.604226
4425.469549
4425.433117
4426.686581
4426.585056
4427.886583
4427.848546
4429.235153
4429.274859
4430.994264
4430.982296
4433.769908
4422.690369
4426.072014
4425.304102
4425.754413
4426.364318
4426.500782
4427.352544
4427.536524
4428.483575
4428.724236
4429.759511
4430.020236
4431.820847
4431.135912
4434.893181
4424.586935
4427.104262
4426.537355
4426.783521
4427.350775
4427.361220
4428.177633
4428.292148
4429.248010
4429.320135
4430.511915
4430.668964
4432.175625
4431.987863
4433.207719
4426.505450
4428.018560
4427.528290
4427.792931
4428.207209
4428.253099
4428.934124
4429.048180
4429.867030
4430.063456
4431.037582
4431.222895
4432.497285
4432.800390
4433.808995
4428.097749
4428.884269
4428.550996
4428.773813
4428.964920
4429.198593
4429.508829
4429.922069
4430.354850
4430.812567
4431.347279
4432.005768
4432.972666
4432.702492
4434.458959
4429.498218
4429.678081
4429.335470
4429.658220
4429.677064
4430.025631
4430.138958
4430.631710
4430.859270
4431.461664
4431.813591
4432.324345
4432.852592
4433.735834
4434.520621
4430.769969
4430.364037
4430.215421
4430.452885
4430.413802
4430.739677
4430.800264
4431.268488
4431.458576
4431.932476
4432.241377
4432.924749
4433.100928
4434.930872
4434.331248
4429.211886
4436.379623
4455.921720
4411.849542
4433.908165
4447.975291
4433.626654
4486.177529
4459.376748
4450.187158
4426.794601
4447.118693
4460.924419
4467.127389
4457.762227
4434.799544
4431.884324
4430.936931
4430.935945
4431.102029
4431.077744
4431.418324
4431.403243
4431.852025
4431.956516
4432.523148
4432.635974
4433.204566
4433.240466
4434.339253
4435.469388
4430.068607
4431.502094
4423.791943
4448.569075
4439.912469
4452.613761
4429.717772
4428.387841
4437.614691
4424.144060
4423.728865
4466.226708
4427.511642
4449.878830
4461.701144
4440.388609
4432.918107
4431.456889
4431.681896
4431.746987
4431.737687
4431.997283
4432.007856
4432.450826
4432.490760
4432.967579
4433.082088
4433.672485
4433.788225
4433.942758
4434.094494
4444.083134
4425.497305
4429.693526
4432.675351
4401.050381
4426.143875
4436.066596
4449.718265
4436.295902
4449.309891
4447.339200
4449.771570
4429.669316
4430.070309
4430.201138
4435.024741
4433.798298
4431.896643
4432.264714
4432.249755
4432.307617
4432.537891
4432.591804
4432.892871
4433.051401
4433.454517
4433.639419
4433.988758
4433.906544
4435.172663
4434.347200
4429.929524
4447.454007
4429.658910
4441.961405
4429.582229
4451.465972
4431.361322
4422.022898
4446.225424
4459.191526
4460.433822
4440.432588
4442.209082
4442.309537
4405.511276
4444.973446
4434.586635
4432.303657
4432.868559
4432.765777
4432.863275
4433.017642
4433.135393
4433.398199
4433.606780
4433.882591
4434.090054
4434.792360
4434.515372
4436.003825
4435.016499
4433.777764
4447.558758
4401.527513
4417.093543
4442.111967
4409.508130
4452.573454
4433.991652
4453.332401
4450.333281
4437.195898
4436.669248
4436.847869
4439.111925
4440.509948
4455.461618
4435.268497
4432.652898
4433.282336
4433.179961
4433.305124
4433.466996
4433.595952
4433.859146
4434.024440
4434.417220
4434.679056
4434.986337
4435.340011
4436.439432
4435.826113
4429.415794
4418.201165
4452.889913
4430.970188
4442.975778
4422.990293
4452.285234
4435.837352
4436.148176
4440.997969
4436.654864
4453.229802
4456.696677
4443.518298
4434.070300
4444.945076
4435.878114
4432.966247
4433.749545
4433.608547
4433.698644
4433.918716
4434.003189
4434.301361
4434.528038
4434.803490
4435.203667
4435.539658
4436.202585
4436.759660
4436.817282
4439.698782
4415.366129
4447.347824
4389.942090
4416.585191
4456.686650
4416.334529
4446.683612
4431.834752
4449.535481
4445.488842
4453.899197
4448.227472
4430.948822
4420.861088
4453.352681
4436.377119
4433.214881
4434.049109
4433.905474
4434.053153
4434.234604
4434.368730
4434.694788
4434.862391
4435.288592
4435.557746
4436.181554
4436.364139
4437.179451
4437.892736
4443.021067
4433.518405
4446.927920
4426.492890
4450.585591
4416.190429
4392.113611
4449.572705
4444.645611
4452.793109
4440.893766
4451.169720
4449.993007
4445.130767
4450.788950
4439.999114
4436.812805
4433.434519
4434.405393
4434.201846
4434.369830
4434.539763
4434.721702
4434.996171
4435.217839
4435.717283
4435.904134
4436.504725
4436.983104
4439.053159
4436.492684
4428.735203
4427.677746
4425.618897
4486.000939
4426.501198
4464.725506
4460.922339
4473.603659
4447.494787
4459.890531
4458.707823
4457.826711
4472.106213
4461.542451
4492.701388
4464.212257
4437.140757
4433.593862
4434.593341
4434.405046
4434.594579
4434.773534
4434.952030
4435.243138
4435.585610
4435.789873
4436.391177
4436.910535
4437.091103
4438.639400
4438.280169
4443.268372
4452.036910
4434.485942
4432.772870
4410.437097
4458.310855
4401.099137
4421.189585
4458.623281
4452.758444
4459.781993
4474.320906
4489.404561
4483.768237
4484.315357
4475.309302
4437.418549
4433.739500
4434.818912
4434.615052
4434.788172
4434.978215
4435.175702
4435.456562
4435.731926
4436.178355
4436.561493
4436.820450
4437.816772
4438.186155
4438.242541
4440.440986
4411.770455
4445.093721
4438.129401
4459.438165
4466.125527
4413.358082
4445.837364
4429.957796
4433.868310
4450.346430
4455.321057
4470.619958
4458.354114
4463.529084
4461.760692
4437.591904
4433.822271
4434.908830
4434.722357
4434.900274
4435.117306
4435.259551
4435.641648
4435.841888
4436.310419
4436.613387
4437.281820
4437.570538
4437.689471
4437.361796
4438.089476
4440.285595
4460.450073
4406.393751
4447.401070
4389.741826
4465.402153
4431.541357
4441.084993
4457.868973
4462.919650
4463.268303
4451.106236
4453.074330
4455.754313
4454.981164
4437.702801
4433.871059
4435.054955
4434.806343
4435.009661
4435.206147
4435.374541
4435.698739
4435.961030
4436.377456
4436.781478
4437.276004
4437.466837
4439.603929
4436.904140
4430.470427
4445.747181
4385.314789
4462.056664
4468.850007
4417.957765
4472.015502
4399.822264
4447.298221
4456.357404
4441.782485
4454.553839
4449.788096
4460.679311
4463.767142
4453.138660
4437.710841
4433.885604
4435.062369
4434.800263
4435.069780
4435.173346
4435.447434
4435.661446
4436.012488
4436.360246
4436.729182
4437.405080
4437.703080
4439.443914
4437.333701
4443.046220
4463.713811
4429.046687
4457.190681
4391.695557
4450.164618
4480.533568
4424.243721
4451.902255
4423.616909
4435.011667
4447.181586
4446.227132
4450.873974
4450.426874
4451.292732
4437.662065
4433.910772
4435.076333
4434.841612
4435.057714
4435.195765
4435.414873
4435.666243
4435.960086
4436.309067
4436.729441
4437.141636
4437.786673
4438.311643
4439.443786
4438.457717
4407.891000
4463.884531
4444.017106
4457.788258
4452.340877
4413.426533
4468.026735
4433.556877
4443.578147
4460.336502
4454.809170
4447.715050
4449.843300
4451.833052
4451.304637
4437.551196
4433.887633
4434.986739
4434.805954
4434.952171
4435.193498
4435.265416
4435.634517
4435.803397
4436.193049
4436.586547
4436.927285
4437.722284
4437.948853
4437.189141
4449.876013
4439.723976
4454.392482
4397.974128
4447.417938
4403.099794
4444.002891
4445.190241
4389.072573
4452.972928
4440.078223
4435.410016
4447.197785
4449.990823
4449.010954
4449.325568
4437.400281
4433.841108
4434.956847
4434.762857
4434.897234
4435.101086
4435.186057
4435.519543
4435.648716
4436.064592
4436.286272
4436.822168
4437.008709
4438.657998
4436.373380
4435.588446
4438.829210
4406.236685
4463.921550
4472.011174
4389.698338
4444.879841
4386.689645
4425.966064
4462.371951
4414.754013
4435.937179
4440.579854
4440.885607
4444.625192
4447.546413
4437.154243
4433.773072
4434.841544
4434.615900
4434.817125
4434.932944
4435.097355
4435.284815
4435.490552
4435.803891
4435.970169
4436.619427
4436.417493
4438.132894
4437.558791
4441.035362
4449.104639
4376.092080
4454.533366
4378.503794
4454.480258
4453.509713
4413.206175
4436.322527
4428.944640
4444.327862
4455.896981
4446.473846
4443.751939
4447.343321
4446.514059
4436.904267
4433.681222
4434.769781
4434.509737
4434.725843
4434.795209
4434.950842
4435.120568
4435.297640
4435.506542
4435.706061
4435.973222
4436.351629
4436.831041
4435.338529
4430.336789
4399.861112
4458.161887
4470.829871
4415.908296
4454.950425
4390.050066
4447.008162
4434.602213
4407.652879
4443.713048
4435.339150
4435.525060
4441.741122
4448.696514
4445.299593
4436.628817
4433.562146
4434.628741
4434.371614
4434.553736
4434.674448
4434.741688
4434.937605
4435.010278
4435.220714
4435.396783
4435.457872
4435.612382
4436.224066
4435.584997
4441.000079
4415.566926
4433.220717
4397.595434
4463.521910
4460.725596
4431.260210
4440.823974
4391.621934
4433.821078
4444.872548
4426.077361
4441.607064
4439.117968
4443.083745
4443.214078
4436.323427
4433.491329
4434.484732
4434.284467
4434.415091
4434.541248
4434.562674
4434.752478
4434.799183
4434.970318
4434.901616
4435.215795
4434.934192
4435.192126
4434.304232
4438.770943
4445.016316
4431.454355
4424.717051
4454.229429
4408.527062
4446.921855
4421.678777
4428.571600
4451.357115
4423.510873
4435.673722
4442.014142
4434.955755
4445.248873
4444.275108
4435.954340
4433.411598
4434.256679
4434.163216
4434.224182
4434.386097
4434.387114
4434.556632
4434.520573
4434.724093
4434.607884
4434.730973
4434.552584
4434.703538
4434.591605
4433.086318
4431.793978
4417.192057
4447.753906
4435.071578
4456.076309
4452.533547
4457.538629
4437.744484
4422.741915
4426.295343
4438.629430
4439.862211
4440.502502
4446.424229
4443.216286
4435.635995
4433.287080
4434.124513
4434.048835
4434.075590
4434.284746
4434.177419
4434.425353
4434.314283
4434.479265
4434.332314
4434.422484
4434.018427
4433.902998
4433.044031
4432.767223
4431.988238
4422.699122
4437.568265
4440.904430
4454.283996
4458.796133
4430.338986
4441.934660
4454.722845
4448.289362
4453.660989
4446.675571
4436.559226
4444.479846
4444.564265