# vtk DataFile Version 2.0
mfree iwf
ASCII

DATASET UNSTRUCTURED_GRID
POINTS 11259 float
0.000000 0.000445 0.000000
0.000000 0.000450 0.000000
0.000000 0.000455 0.000000
0.000000 0.000460 0.000000
0.000000 0.000465 0.000000
0.000000 0.000470 0.000000
0.000000 0.000475 0.000000
0.000000 0.000480 0.000000
0.000000 0.000485 0.000000
0.000000 0.000490 0.000000
-0.000000 0.000496 0.000000
0.000002 0.000500 0.000000
0.000964 0.000964 0.000000
0.000973 0.000963 0.000000
0.001020 0.000954 0.000000
0.001025 0.000951 0.000000
0.001024 0.000951 0.000000
0.001032 0.000950 0.000000
0.001038 0.000947 0.000000
0.001034 0.000949 0.000000
0.001048 0.000944 0.000000
0.001073 0.000935 0.000000
0.001079 0.000931 0.000000
0.001082 0.000928 0.000000
0.001086 0.000925 0.000000
0.001090 0.000922 0.000000
0.001094 0.000919 0.000000
0.001097 0.000915 0.000000
0.001100 0.000913 0.000000
0.001105 0.000908 0.000000
0.001110 0.000904 0.000000
0.001130 0.000894 0.000000
0.000005 0.000445 0.000000
0.000005 0.000450 0.000000
0.000005 0.000455 0.000000
0.000005 0.000460 0.000000
0.000005 0.000465 0.000000
0.000005 0.000470 0.000000
0.000005 0.000475 0.000000
0.000005 0.000480 0.000000
0.000005 0.000485 0.000000
0.000006 0.000490 0.000000
0.000003 0.000496 0.000000
0.000006 0.000499 0.000000
0.001015 0.000954 0.000000
0.001020 0.000945 0.000000
0.001054 0.000940 0.000000
0.001060 0.000938 0.000000
0.001065 0.000936 0.000000
0.001068 0.000934 0.000000
0.001071 0.000933 0.000000
0.001074 0.000929 0.000000
0.001077 0.000926 0.000000
0.001082 0.000922 0.000000
0.001088 0.000918 0.000000
0.001093 0.000914 0.000000
0.001096 0.000909 0.000000
0.001104 0.000904 0.000000
0.001107 0.000900 0.000000
0.001112 0.000897 0.000000
0.001122 0.000894 0.000000
0.001124 0.000893 0.000000
0.001119 0.000896 0.000000
0.001128 0.000892 0.000000
0.000010 0.000445 0.000000
0.000010 0.000450 0.000000
0.000010 0.000455 0.000000
0.000010 0.000460 0.000000
0.000010 0.000465 0.000000
0.000010 0.000469 0.000000
0.000010 0.000475 0.000000
0.000011 0.000480 0.000000
0.000009 0.000486 0.000000
0.000012 0.000489 0.000000
0.000009 0.000497 0.000000
0.000011 0.000498 0.000000
0.001014 0.000950 0.000000
0.001023 0.000943 0.000000
0.001039 0.000942 0.000000
0.001047 0.000941 0.000000
0.001051 0.000939 0.000000
0.001056 0.000938 0.000000
0.001047 0.000934 0.000000
0.001056 0.000931 0.000000
0.001061 0.000930 0.000000
0.001068 0.000927 0.000000
0.001077 0.000922 0.000000
0.001081 0.000919 0.000000
0.001081 0.000914 0.000000
0.001086 0.000910 0.000000
0.001091 0.000910 0.000000
0.001101 0.000904 0.000000
0.001114 0.000896 0.000000
0.001116 0.000894 0.000000
0.001122 0.000889 0.000000
0.001124 0.000883 0.000000
0.000015 0.000445 0.000000
0.000016 0.000450 0.000000
0.000014 0.000456 0.000000
0.000017 0.000460 0.000000
0.000014 0.000469 0.000000
0.000015 0.000464 0.000000
0.000014 0.000476 0.000000
0.000016 0.000480 0.000000
0.000014 0.000485 0.000000
0.000016 0.000489 0.000000
0.000014 0.000495 0.000000
0.000016 0.000498 0.000000
0.000025 0.000500 0.000000
0.001027 0.000944 0.000000
0.001042 0.000941 0.000000
0.001038 0.000937 0.000000
0.001052 0.000933 0.000000
0.001061 0.000936 0.000000
0.001063 0.000926 0.000000
0.001070 0.000923 0.000000
0.001065 0.000920 0.000000
0.001073 0.000919 0.000000
0.001083 0.000906 0.000000
0.001086 0.000915 0.000000
0.001092 0.000903 0.000000
0.001097 0.000904 0.000000
0.001097 0.000899 0.000000
0.001102 0.000898 0.000000
0.001107 0.000893 0.000000
0.001111 0.000891 0.000000
0.001114 0.000888 0.000000
0.001122 0.000881 0.000000
0.000019 0.000445 0.000000
0.000021 0.000450 0.000000
0.000018 0.000455 0.000000
0.000022 0.000458 0.000000
0.000019 0.000468 0.000000
0.000024 0.000467 0.000000
0.000018 0.000475 0.000000
0.000022 0.000478 0.000000
0.000019 0.000486 0.000000
0.000021 0.000491 0.000000
0.000021 0.000497 0.000000
0.000022 0.000499 0.000000
0.000039 0.000500 0.000000
0.001024 0.000932 0.000000
0.001030 0.000938 0.000000
0.001038 0.000932 0.000000
0.001044 0.000937 0.000000
0.001054 0.000927 0.000000
0.001054 0.000922 0.000000
0.001069 0.000918 0.000000
0.001058 0.000921 0.000000
0.001071 0.000912 0.000000
0.001073 0.000904 0.000000
0.001078 0.000900 0.000000
0.001083 0.000900 0.000000
0.001092 0.000897 0.000000
0.001098 0.000889 0.000000
0.001104 0.000890 0.000000
0.001107 0.000887 0.000000
0.001116 0.000882 0.000000
0.001118 0.000885 0.000000
0.001119 0.000877 0.000000
0.000024 0.000445 0.000000
0.000026 0.000450 0.000000
0.000024 0.000455 0.000000
0.000026 0.000461 0.000000
0.000021 0.000466 0.000000
0.000025 0.000472 0.000000
0.000023 0.000476 0.000000
0.000027 0.000481 0.000000
0.000023 0.000485 0.000000
0.000026 0.000488 0.000000
0.000026 0.000493 0.000000
0.000027 0.000500 0.000000
0.000994 0.000960 0.000000
0.001030 0.000941 0.000000
0.001035 0.000941 0.000000
0.001049 0.000929 0.000000
0.001042 0.000926 0.000000
0.001062 0.000925 0.000000
0.001061 0.000916 0.000000
0.001051 0.000922 0.000000
0.001060 0.000913 0.000000
0.001076 0.000915 0.000000
0.001075 0.000910 0.000000
0.001078 0.000909 0.000000
0.001087 0.000906 0.000000
0.001089 0.000900 0.000000
0.001101 0.000893 0.000000
0.001096 0.000894 0.000000
0.001111 0.000884 0.000000
0.001103 0.000884 0.000000
0.001112 0.000879 0.000000
0.001116 0.000873 0.000000
0.000030 0.000445 0.000000
0.000031 0.000450 0.000000
0.000029 0.000455 0.000000
0.000031 0.000460 0.000000
0.000031 0.000465 0.000000
0.000028 0.000469 0.000000
0.000032 0.000472 0.000000
0.000030 0.000477 0.000000
0.000030 0.000486 0.000000
0.000031 0.000492 0.000000
0.000033 0.000497 0.000000
0.000030 0.000499 0.000000
0.000049 0.000500 0.000000
0.001019 0.000939 0.000000
0.001033 0.000929 0.000000
0.001043 0.000930 0.000000
0.001039 0.000927 0.000000
0.001047 0.000925 0.000000
0.001054 0.000914 0.000000
0.001067 0.000907 0.000000
0.001066 0.000914 0.000000
0.001069 0.000907 0.000000
0.001079 0.000904 0.000000
0.001084 0.000892 0.000000
0.001085 0.000896 0.000000
0.001089 0.000892 0.000000
0.001094 0.000885 0.000000
0.001093 0.000890 0.000000
0.001101 0.000880 0.000000
0.001107 0.000880 0.000000
0.001111 0.000876 0.000000
0.001113 0.000870 0.000000
0.000035 0.000445 0.000000
0.000035 0.000450 0.000000
0.000034 0.000456 0.000000
0.000038 0.000454 0.000000
0.000034 0.000467 0.000000
0.000037 0.000472 0.000000
0.000032 0.000479 0.000000
0.000041 0.000478 0.000000
0.000035 0.000484 0.000000
0.000034 0.000488 0.000000
0.000037 0.000491 0.000000
0.000036 0.000498 0.000000
0.000952 0.000962 0.000000
0.000990 0.000961 0.000000
0.001028 0.000932 0.000000
0.001034 0.000924 0.000000
0.001047 0.000917 0.000000
0.001040 0.000915 0.000000
0.001056 0.000917 0.000000
0.001054 0.000909 0.000000
0.001062 0.000909 0.000000
0.001057 0.000902 0.000000
0.001065 0.000895 0.000000
0.001077 0.000892 0.000000
0.001079 0.000895 0.000000
0.001084 0.000888 0.000000
0.001098 0.000883 0.000000
0.001090 0.000872 0.000000
0.001102 0.000875 0.000000
0.001105 0.000874 0.000000
0.001108 0.000871 0.000000
0.001110 0.000866 0.000000
0.000040 0.000445 0.000000
0.000041 0.000450 0.000000
0.000036 0.000461 0.000000
0.000040 0.000458 0.000000
0.000042 0.000463 0.000000
0.000039 0.000468 0.000000
0.000041 0.000472 0.000000
0.000037 0.000478 0.000000
0.000041 0.000488 0.000000
0.000042 0.000491 0.000000
0.000041 0.000497 0.000000
0.000044 0.000498 0.000000
0.000809 0.000897 0.000000
0.001016 0.000946 0.000000
0.001020 0.000935 0.000000
0.001030 0.000919 0.000000
0.001044 0.000920 0.000000
0.001049 0.000912 0.000000
0.001045 0.000915 0.000000
0.001061 0.000905 0.000000
0.001067 0.000900 0.000000
0.001071 0.000898 0.000000
0.001064 0.000900 0.000000
0.001071 0.000888 0.000000
0.001080 0.000886 0.000000
0.001085 0.000882 0.000000
0.001089 0.000886 0.000000
0.001090 0.000881 0.000000
0.001095 0.000879 0.000000
0.001098 0.000871 0.000000
0.001105 0.000868 0.000000
0.001107 0.000862 0.000000
0.000044 0.000445 0.000000
0.000046 0.000450 0.000000
0.000044 0.000455 0.000000
0.000046 0.000460 0.000000
0.000044 0.000467 0.000000
0.000046 0.000474 0.000000
0.000046 0.000479 0.000000
0.000040 0.000483 0.000000
0.000052 0.000485 0.000000
0.000045 0.000484 0.000000
0.000048 0.000493 0.000000
0.000050 0.000498 0.000000
0.000815 0.000903 0.000000
0.001011 0.000954 0.000000
0.001034 0.000934 0.000000
0.001039 0.000920 0.000000
0.001035 0.000917 0.000000
0.001049 0.000908 0.000000
0.001051 0.000902 0.000000
0.001055 0.000905 0.000000
0.001060 0.000894 0.000000
0.001069 0.000893 0.000000
0.001075 0.000897 0.000000
0.001080 0.000882 0.000000
0.001073 0.000883 0.000000
0.001082 0.000878 0.000000
0.001090 0.000877 0.000000
0.001095 0.000874 0.000000
0.001093 0.000869 0.000000
0.001098 0.000867 0.000000
0.001102 0.000864 0.000000
0.001104 0.000858 0.000000
0.000049 0.000445 0.000000
0.000052 0.000450 0.000000
0.000049 0.000454 0.000000
0.000054 0.000455 0.000000
0.000048 0.000464 0.000000
0.000050 0.000471 0.000000
0.000052 0.000467 0.000000
0.000051 0.000477 0.000000
0.000047 0.000488 0.000000
0.000052 0.000491 0.000000
0.000057 0.000492 0.000000
0.000053 0.000498 0.000000
0.000896 0.000950 0.000000
0.001002 0.000951 0.000000
0.001014 0.000942 0.000000
0.001029 0.000923 0.000000
0.001037 0.000912 0.000000
0.001043 0.000909 0.000000
0.001039 0.000905 0.000000
0.001046 0.000905 0.000000
0.001053 0.000895 0.000000
0.001057 0.000898 0.000000
0.001057 0.000891 0.000000
0.001067 0.000887 0.000000
0.001072 0.000878 0.000000
0.001075 0.000888 0.000000
0.001081 0.000873 0.000000
0.001085 0.000868 0.000000
0.001086 0.000874 0.000000
0.001095 0.000863 0.000000
0.001098 0.000860 0.000000
0.001100 0.000854 0.000000
0.000054 0.000445 0.000000
0.000057 0.000450 0.000000
0.000053 0.000459 0.000000
0.000052 0.000463 0.000000
0.000059 0.000467 0.000000
0.000054 0.000473 0.000000
0.000057 0.000477 0.000000
0.000057 0.000481 0.000000
0.000052 0.000482 0.000000
0.000056 0.000487 0.000000
0.000056 0.000497 0.000000
0.000059 0.000496 0.000000
0.000918 0.000955 0.000000
0.001009 0.000956 0.000000
0.001006 0.000949 0.000000
[...]
POINT_DATA 11259
SCALARS density float 1
LOOKUP_TABLE default
4425.817291
4432.072309
4429.788444
4428.649830
4432.206246
4424.593757
4435.968036
4429.185771
4429.496727
4420.618456
4430.347049
4402.766575
4430.124594
4421.820561
4417.847332
4438.996684
4440.380917
4436.334957
4446.538041
4449.135399
4427.122141
4432.234345
4398.742979
4435.407179
4433.234093
4424.172144
4452.523249
4426.721251
4415.469092
4447.152143
4422.760553
4401.173710
4430.022212
4429.690512
4424.360862
4422.511700
4434.083892
4420.401337
4428.788354
4420.041609
4422.638074
4430.711212
4451.421752
4407.882436
4412.792896
4421.515823
4415.755650
4409.827851
4424.618142
4420.982964
4444.306049
4460.529663
4445.213686
4418.325650
4390.902295
4384.147866
4449.746913
4403.546768
4435.865748
4460.716727
4423.189995
4431.569141
4405.884463
4402.123691
4420.240182
4420.688010
4436.393096
4426.801009
4429.456270
4423.999422
4452.017561
4390.685459
4471.112031
4373.686267
4453.353399
4399.987727
4457.322126
4459.782210
4435.303505
4401.966056
4421.475252
4412.086313
4450.668911
4428.781324
4406.440754
4397.372149
4421.167888
4438.684155
4387.403872
4448.183678
4432.126675
4400.210858
4422.803024
4425.703487
4451.477554
4416.407998
4423.315910
4435.853970
4438.558733
4414.516113
4412.612276
4430.453349
4462.099268
4382.668328
4478.438131
4386.752051
4512.535619
4400.926078
4436.616587
4379.969748
4415.885485
4443.483459
4477.787872
4460.728512
4467.356691
4387.981067
4404.914838
4431.087958
4404.800311
4475.993538
4408.875017
4451.744496
4443.654365
4458.140011
4436.422481
4362.443325
4502.614918
4445.069729
4438.334774
4430.538014
4431.856615
4444.817026
4434.430379
4453.979707
4422.994023
4454.663711
4470.518657
4373.649270
4467.641272
4436.222043
4415.353918
4435.317316
4473.764822
4419.067137
4478.509836
4395.733723
4461.696438
4457.861759
4417.698880
4378.943873
4388.634821
4440.527331
4417.696846
4410.824653
4410.024031
4462.535096
4453.443590
4373.768654
4395.295007
4419.493174
4434.531276
4439.774437
4448.656394
4400.839899
4435.302133
4402.215165
4472.426110
4364.282598
4428.983047
4475.178389
4407.609745
4425.205406
4433.220163
4426.919975
4390.812280
4401.238210
4436.716193
4447.872328
4419.327788
4424.419352
4464.248859
4440.880514
4465.384270
4448.649686
4450.362067
4458.642197
4390.542660
4427.393005
4420.294424
4424.257731
4503.564075
4408.945081
4424.418357
4430.860444
4412.523790
4451.417298
4445.411151
4431.402675
4398.406674
4449.037339
4445.529398
4412.446243
4458.497520
4420.126296
4423.036769
4442.697874
4460.495265
4399.413459
4444.622263
4475.267928
4413.653128
4439.140151
4441.068696
4455.650899
4455.028021
4454.130350
4441.949310
4400.900850
4410.422487
4464.016827
4439.545748
4384.667282
4404.900923
4441.644413
4430.745152
4425.161390
4439.669049
4424.581148
4430.751326
4422.769864
4445.601227
4418.826985
4397.921999
4429.032031
4418.142702
4444.025403
4413.006547
4426.438502
4396.436407
4401.091647
4424.579006
4440.768185
4430.334464
4411.222890
4429.912454
4479.620045
4416.452219
4428.103069
4396.614108
4442.955717
4443.064085
4435.893324
4446.302577
4459.667048
4416.287762
4416.534217
4434.095936
4435.353688
4400.051516
4448.470360
4444.893423
4431.430977
4438.641211
4428.049882
4447.742892
4425.891466
4431.228853
4425.502696
4425.432918
4460.386800
4406.942321
4438.799472
4407.661552
4443.207199
4453.327158
4400.430283
4450.178014
4438.743025
4424.161255
4436.410612
4421.445854
4414.902615
4414.305664
4437.184288
4406.986788
4400.160182
4411.959513
4434.857756
4435.430319
4424.101552
4426.161983
4413.492562
4408.569785
4438.799995
4427.417716
4437.736056
4460.091117
4428.506230
4473.719631
4426.032460
4434.340615
4439.962201
4389.650069
4436.974716
4425.574605
4426.510562
4399.380085
4448.066970
4442.670226
4422.020018
4438.292938
4448.340898
4400.169483
4440.459269
4448.817161
4445.472624
4430.406628
4457.483553
4432.551975
4426.141683
4422.150302
4427.456611
4436.914265
4434.619126
4427.593939
4443.670080
4429.681105
4396.421470
4385.116019
4430.767793
4529.339683
4403.883207
4436.520644
4429.895261
4390.718589
4443.346780
4428.386541
4385.721536
4459.831196
4443.773686
4406.694476
4416.301416
4458.214226
4435.925061
4443.976440
4450.964497
4442.415919
4438.555084
4385.388024
4404.820074
4421.134471
4429.727216
4443.858743
4416.698408
4435.985306
4421.534781
4420.770860
4459.180796
4427.391276
4455.960188
4452.633824
4361.323894
4405.936560
4414.148849
4428.289214
4434.025584
4419.549176
4417.489539
4449.629055
4439.933397
4392.206061
4461.222701
4423.111758
4383.628355
4453.955942
4402.232876
4423.195550
4441.851612
4461.824660
4423.157770
4451.574527
4447.151616
4428.431958
4424.061434
4432.303961
4433.532848
4396.647025
4406.570013
4436.649025
4433.307416
4417.359012
4426.598252
4449.724639
4388.021423
4448.976433
4439.834467
4418.170193
4435.205171
4421.436266
4380.501017
4396.868343
4408.225317
4439.955359
4425.640676
4430.374072
4443.038807
4427.634885
4427.697406
4400.075066
4435.657529
4411.739562
4440.178561
4386.602442
4418.068511
4440.706655
4429.571360
4436.990598
4419.168492
4436.755378
4434.446082
4445.798295
4432.978161
4435.018218
4389.654203
4452.616052
4410.719791
4413.435506
4437.166262
4412.426922
4435.660344
4411.762202
4398.609307
4440.495903
4387.691186
4446.958508
4415.576795
4431.654606
4428.298793
4468.504585
4433.636760
4432.217754
4453.644757
4425.266476
4446.846572
4453.390051
4428.115497
4427.039346
4430.115403
4406.668661
4449.495321
4430.540402
4427.567388
4436.866489
4441.111048
4430.800666
4432.630455
4379.146935
4417.573664
4449.549948
4452.640604
4426.628657
4439.434086
4435.791499
4459.624541
4448.444575
4456.828693
4457.981156
4452.401291
4386.037419
4418.443220
4409.842238
4432.901949
4470.359866
4412.258274
4447.426361
4401.023539
4425.495686
4399.333535
4434.008128
4430.144558
4440.646117
4407.658010
4412.396911
4443.968518
4425.216604
4400.868454
4445.156299
4446.496257
4456.386631
4384.997838
4394.196918
4446.175046
4426.608268
4423.620168
4430.162681
4442.270729
4439.457822
4415.567733
4400.408207
4423.609920
4392.954858
4413.864926
4444.444772
4419.560809
4400.331320
4429.777633
4428.346653
4450.529890
4436.606387
4435.570322
4433.574313
4420.466656
4423.535930
4436.942554
4427.366368
4435.645804
4391.218321
4432.112066
4415.793191
4418.061211
4434.299925
4441.103776
4425.550703
4428.119495
4430.128165
4425.896596
4425.977297
4436.175265
4474.074050
4441.107420
4418.902407
4441.990473
4416.029798
4450.649452
4444.358183
4440.807930
4417.957396
4408.978041
4394.536788
4433.029826
4415.350208
4434.598742
4425.793254
4441.545342
4444.902562
4437.369120
4428.470952
4407.410068
4439.647908
4443.122484
4449.154748
4437.420286
4429.355263
4430.767719
4433.040028
4444.684439
4432.923175
4434.531857
4440.478269
4436.885928
4464.590454
4418.480631
4483.460530
4493.815079
4436.240523
4436.881996
4423.350970
4423.821288
4450.793801
4446.267358
4438.994326
4425.060859
4456.640460
4428.690619
4430.053215
4426.673840
4414.445881
4442.577961
4426.085378
4431.218593
4429.430925
4439.959139
4437.744893
4429.998450
4434.535406
4426.337904
4399.546912
4431.397025
4418.631925
4416.147047
4432.450589
4435.692002
4423.325602
4442.176482
4430.754200
4429.439964
4449.141909
4440.424284
4418.866844
4410.668962
4413.928853
4432.825126
4430.311446
4432.943291
4407.000956
4411.445595
4426.781703
4434.655890
4449.787539
4412.718828
4439.774515
4446.336728
4424.576184
4413.698411
4432.628862
4444.375060
4431.593623
4411.289369
4425.013998
4430.858425
4427.048112
4441.329117
4439.873781
4470.968468
4439.185617
4440.279845
4438.575317
4447.056559
4489.374533
4432.962542
4435.273024
4454.535967
4375.831496
4434.935325
4388.117429
4438.468364
4437.359313
4452.760657
4425.805621
4435.109130
4421.337762
4441.184195
4450.721744
4416.345992
4414.365452
4448.654691
4411.624423
4419.041833
4461.281682
4477.953758
4389.492758
4508.590045
4425.093853
4425.089943
4420.498073
4475.214163
4439.176054
4423.720497
4356.219969
4438.401487
4395.088653
4440.869088
4469.658947
4446.471295
4463.884161
4457.717767
4413.191423
4425.715960
4439.038395
4407.220176
4413.701643
4423.520224
4421.448926
4421.881562
4421.385882
4422.706824
4433.207059
4437.259676
4429.776326
4427.528496
4446.971115
4380.704198
4434.955324
4436.316367
4438.223596
4423.341897
4437.181699
4450.583103
4454.654283
4413.177892
4442.548030
4430.689933
4394.210154
4353.504221
4459.085156
4395.763566
4429.509635
4440.137592
4450.988340
4422.623579
4446.261819
4428.087925
4458.349549
4428.558525
4433.603956
4416.737224
4437.984349
4409.956086
4423.268910
4436.558713
4418.430617
4409.702651
4430.675725
4393.006542
4374.266564
4471.179603
4429.122709
4478.748251
4385.996863
4432.560436
4439.815766
4437.265637
4434.926944
4459.416655
4448.417694
4382.029063
4360.980543
4447.104802
4384.687993
4365.690136
4411.875248
4430.582724
4458.486106
4417.064477
4413.067617
4416.716953
4438.399349
4418.225426
4463.688275
4428.041884
4449.925479
4427.817530
4409.257847
4441.227795
4464.484778
4453.097384
4427.055104
4431.705991
4457.211532
4419.765990
4433.366170
4396.994265
4371.003426
4423.445599
4407.053168
4424.960980
4391.057229
4441.336386
4438.008457
4467.372790
4449.409575
4482.533723
4423.038837
4427.555246
4448.323084
4411.667602
4456.331455
4423.887136
4426.209816
4430.054984
4430.032948
4430.141655
4429.966236
4429.518808
4429.286992
4428.936204
4429.226083
4429.869469
4430.804285
4431.173223
4431.005782
4430.572835
4430.227370
4427.321733
4429.361281
4428.499093
4428.866016
4429.717686
4430.843730
4432.078111
4433.076756
4433.213889
4431.724088
4429.975292
4428.847958
4428.962090
4430.192819
4431.247192
4428.243941
4429.596605
4430.379715
4430.608760
4430.079182
4428.896041
4427.884803
4426.618422
4426.782734
4428.350620
4430.793980
4431.953813
4431.349156
4430.374245
4428.667033
4428.649983
4429.164466
4428.322522
4428.311612
4429.257759
4430.566764
4431.957300
4433.565254
4433.406037
4432.013145
4429.159493
4427.827070
4427.543736
4429.072495
4429.569469
4429.095109
4429.597194
4430.515363
4430.736685
4429.970535
4428.870483
4427.496261
4425.979139
4426.176229
4427.506929
4430.409460
4431.549398
4431.760717
4429.265041
4430.087249
4429.015506
4429.252182
4428.286483
4428.077621
4429.279082
4430.102390
4432.077092
4433.018556
4433.609030
4431.241899
4429.356211
4426.723669
4427.896354
4428.007004
4429.468227
4429.348768
4429.466314
4430.794026
4430.552561
4429.977951
4428.751282
4427.261801
4425.788391
4425.831327
4427.280576
4429.882748
4431.419893
4430.569430
4427.980436
4427.412302
4429.043255
4429.090074
4428.450335
4427.874636
4429.217372
4429.945374
4431.854687
4432.910196
4433.351647
4431.143386
4429.080048
4426.659913
4427.439185
4427.495831
4429.507082
4428.899814
4429.688726
4430.521444
4430.424359
4430.188220
4428.249378
4427.626557
4425.171471
4426.118233
4426.758446
4430.075018
4431.302088
4432.107192
4429.364705
4430.227463
4429.005600
4429.275868
4428.071727
4428.184531
4428.657868
4430.319460
4431.072662
4433.307124
4432.725893
4431.297553
4428.961964
4426.572513
4428.046531
4428.867013
4428.764226
4429.070760
4429.879564
4430.206504
4430.919985
4429.346402
4428.892754
4426.646766
4425.824442
4425.313803
4427.320127
4429.064830
4432.200057
4429.719417
4429.414931
4428.177927
4428.869263
4429.242944
4427.957799
4427.843437
4428.710165
4429.839054
4431.086576
4433.014539
4432.787536
4431.222486
4428.636712
4426.726922
4427.426605
4428.165558
4428.794120
4428.936742
4429.464757
4430.516477
4430.456445
4429.604430
4428.302109
4427.165983
4425.191885
4425.934080
4426.447370
4429.899693
4431.429503
4432.200436
4430.091662
4431.667921
4442.605582
4438.906284
4437.189329
4436.483344
4421.599164
4454.110413
4431.203543
4401.350145
4410.043175
4451.937853
4456.441265
4403.100114
4416.937190
4454.320723
4423.945032
4428.246152
4428.737041
4428.918518
4428.140963
4427.136545
4429.010241
4429.232885
4431.221711
4432.546594
4432.898835
4430.666648
4428.909694
4426.331449
4428.484852
4429.604875
4432.016017
4437.161773
4431.122099
4414.593897
4406.000477
4406.251615
4442.158675
4426.468007
4400.807777
4386.465466
4420.460464
4425.537624
4440.530147
4429.076348
4385.686927
4430.423483
4410.844873
4428.605007
4429.372855
4430.401544
4430.351802
4429.471117
4428.104950
4427.161104
4425.115551
4425.782606
4426.217432
4429.201267
4431.307311
4431.078102
4429.532999
4431.504593
4449.372072
4424.510173
4423.061816
4431.816312
4408.739616
4450.354042
4424.703398
4425.915401
4394.852367
4439.819795
4430.962191
4419.005879
4432.840313
4447.944991
4443.619199
4426.609243
4428.555590
4429.084887
4427.581577
4427.419121
4428.160023
4429.731895
4430.184523
4433.005977
4431.706968
4431.082117
4427.675590
4425.796472
4426.662041
4427.159343
4429.037885
4447.308054
4434.574789
4395.653235
4385.299448
4397.357006
4450.453913
4433.031610
4440.329325
4443.128535
4454.190991
4426.853955
4426.985874
4375.403606
4403.073499
4454.275964
4451.269901
4428.323524
4429.542440
4430.027262
4430.385446
4429.347674
4427.979114
4427.042753
4424.997918
4425.636454
4425.573733
4428.519176
4430.650211
4429.185017
4427.130108
4425.935695
4448.488176
4403.444738
4457.681654
4451.210158
4448.744566
4432.336961
4440.007167
4450.065102
4413.292465
4432.482379
4386.858965
4428.132051
4420.531688
4426.366154
4431.665621
4420.599976
4428.165790
4428.937346
4427.459407
4427.264351
4427.945959
4429.665718
4429.909474
4432.749258
4431.488650
4430.674714
4427.398875
4424.808766
4426.313625
4425.977276
4425.793909
4418.709360
4391.340953
4426.065374
4404.550897
4480.280816
4384.803373
4431.622562
4439.264406
4436.165052
4405.217339
4399.047732
4419.058415
4422.651546
4418.942186
4443.632350
4418.554899
4428.479931
4429.448075
4430.027040
4430.470490
4429.117201
4428.189934
4426.557478
4425.387754
4425.271335
4425.548211
4427.722796
4430.824960
4427.575472
4427.096732
4425.925041
4448.326727
4420.213045
4472.282846
4411.270956
4369.210487
4451.717029
4430.088818
4431.879675
4420.054818
4435.050334
4423.964742
4466.568213
4443.823490
4419.238095
4477.958032
4405.119686
4428.024886
4428.783725
4427.425039
4426.844995
4427.961255
4429.124984
4429.951772
4432.372387
4431.719534
4430.347030
4427.512050
4424.562099
4426.179196
4426.210560
4423.425108
4434.664061
4439.507988
4427.134861
4440.221595
4416.782345
4463.746862
4418.834774
4425.299271
4424.631225
4406.052264
4447.504632
4388.625254
4465.573042
4385.668100
4425.214771
4426.462904
4428.226166
4429.146902
4430.192609
4430.230448
4429.221190
4427.771379
4426.921994
4425.141418
4425.980946
4424.986181
4428.257202
4430.817194
4429.395280
4427.187804
4428.683314
4406.498723
4404.870070
4445.443513
4420.027966
4444.802412
4437.958604
4423.183236
4423.837864
4364.031031
4419.559108
4415.376970
4404.450390
4459.827723
4449.492530
4427.861282
4390.061783
4427.998604
4428.543018
4427.562892
4426.281760
4428.026319
4428.661855
4429.928528
4432.228786
4431.576587
4430.520346
4427.409663
4424.562865
4427.456281
4426.226891
4429.742442
4443.451971
4412.991178
4452.347213
4454.565083
4356.809616
4416.356072
4430.205201
4442.252603
4428.354001
4430.942894
4454.271771
4445.159581
4397.679369
4449.441033
4377.581914
4447.860415
4427.995118
4429.101633
4430.017219
4430.319484
4429.088469
4427.661455
4427.052439
4425.221305
4426.243967
4424.510641
4428.156526
4430.855313
4429.180977
4428.656647
4426.632756
4427.626700
4429.565993
4443.437549
4445.573007
4474.697707
4429.913728
4459.563750
4453.654958
4393.263433
4450.911650
4386.712070
4438.011644
4463.223202
4380.779630
4437.591492
4398.304966
4427.909569
4428.684728
4427.190922
4426.505282
4427.255980
4429.053479
4429.280547
4432.252895
4431.363633
4430.629966
4426.850186
4424.662245
4425.564745
4426.753308
4425.956044
4435.195380
4420.978919
4409.168782
4404.273270
4414.202448
4419.242874
4431.116454
4441.760096
4461.371742
4440.286706
4463.542545
4403.097106
4427.520933
4420.250537
4432.937078
4440.314384
4427.776675
4429.377426
4429.616887
4430.440635
4429.237617
4427.829867
4426.733465
4426.189270
4425.469753
4425.016544
4427.093522
4430.832675
4428.035810
4427.180655
4426.401695
4413.902746
4428.528099
4414.543074
4429.491848
4442.231917
4431.746849
4444.226938
4432.276662
4427.764947
4424.460563
4408.972288
4455.752341
4399.466850
4412.571579
4501.347167
4444.019387
4427.609444
4429.127127
4426.516210
4427.170551
4426.343373
4429.873421
4428.395648
4432.667156
4431.040497
4430.561017
4426.588666
4424.619424
4424.885752
4425.860443
4425.436250
4424.962998
4427.412084
4407.748214
4455.251962
4431.244194
4418.987946
4425.322492
4426.075282
4417.249060
4450.411678
4435.343199
4447.141839
4397.697346
4411.437479
4405.625008
4453.245465
4427.543352
4429.816928
4429.092412
4431.249077
4428.565938
4428.534027
4425.738867
4427.007695
4424.943047
4425.436016
4426.539149
4430.721324
4427.820400
4428.098952
4424.010755
4426.155844
4434.372594
4402.798855
4450.422894
4425.286423
4438.061259
4418.494765
4438.056748
4436.543728
4431.706541
4400.482611
4428.150272
4435.057889
4451.240683
4406.558698
4398.066376
4427.722283
4428.849658
4426.906147
4426.389956
4426.961991
4428.712285
4428.808998
4432.820756
4430.782044
4431.185700
4426.387597
4425.360531
4423.992436
4426.021622
4424.757450
4431.782494
4430.149757
4422.499093
4416.950360
4427.943173
4450.694078
4421.842504
4424.595232
4415.536229
4463.974335
4431.257112
4429.668540
4435.136998
4404.643099
4431.827992
4429.348960
4427.905976
4429.213880
4429.899494
4430.876876
4428.652209
4428.510762
4426.475542
4426.357332
4426.828531
4424.676719
4426.834900
4430.543344
4429.582943
4427.046819
4425.376076
4407.041141
4410.261344
4432.801925
4433.036660
4393.143213
4428.734728
4441.814351
4424.943587
4459.860315
4420.846450
4450.048656
4404.940611
4417.502936
4419.475254
4418.795124
4413.352832
4428.053508
4428.727902
4427.090574
4425.923623
4427.036127
4427.739135
4429.720296
4432.044949
4431.183375
4430.649502
4427.359634
4423.493704
4424.971731
4425.119297
4425.527113
4442.855844
4442.386248
4440.101764
4456.225710
4387.249587
4414.857801
4441.762159
4392.195052
4469.809858
4463.023230
4442.904611
4379.594851
4440.527948
4437.215617
4416.691761
4429.896699
4427.956551
4428.590817
4430.430417
4429.762558
4429.788905
4427.287416
4427.724488
4425.425001
4427.619181
4423.706577
4426.544226
4431.236639
4428.105714
4425.862472
4428.033119
4440.837259
4428.249228
4415.643845
4455.961406
4387.076751
4434.559474
4428.875369
4438.746827
4440.995262
4448.908986
4462.856676
4402.931030
4419.154851
4426.331348
4366.111069
4433.761364
4427.841349
4429.038095
4426.912454
4426.429377
4425.957912
4428.937891
4428.899436
4432.587487
4431.548790
4431.537699
4426.883019
4423.951637
4423.664055
4424.107051
4424.708033
4428.498546
4426.151078
4418.344099
4380.822884
4431.247438
4444.101691
4443.266277
4424.655882
4408.433012
4452.335430
4400.774964
4417.143763
4396.885494
4435.810031
4412.513108
4445.995638
4427.610521
4429.737918
4428.666561
4431.772430
4429.099082
4428.907115
4427.013774
4427.996119
4426.006095
4424.511227
4426.924613
4430.142903
4427.668647
4427.242933
4423.123880
4424.257693
4423.949210
4426.684504
4430.289625
4455.103920
4414.449688
4417.329366
4476.182964
4397.778866
4454.240846
4404.521842
4384.425024
4478.878751
4422.226437
4567.448269
4410.729613
4427.621789
4429.095897
4427.461287
4426.235256
4426.345456
4429.051277
4427.900290
4433.889313
4430.314290
4431.146678
4426.179975
4425.722009
4422.639596
4425.504289
4422.293472
4436.903902
4437.616012
4428.928108
4416.737126
4462.800209
4461.286762
4439.320875
4435.844065
4467.598760
4448.133899
4442.054819
4451.760618
4446.092523
4435.922721
4273.266753
4427.862136
4428.040828
4430.097231
4428.770386
4432.492973
4428.160740
4429.609656
4425.366270
4428.426248
4424.043351
4426.010706
4425.302165
4429.714941
4426.784341
4427.126499
4420.870573
4424.450575
4400.838273
4410.067293
4425.788892
4449.081081
4416.415039
4442.770654
4443.183087
4442.063780
4417.621939
4413.703352
4440.103161
4450.511992
4447.258527
4379.018426
4396.528045