# vtk DataFile Version 2.0
mfree iwf
ASCII

DATASET UNSTRUCTURED_GRID
POINTS 10950 float
0.000000 0.000445 0.000000
0.000000 0.000450 0.000000
0.000000 0.000455 0.000000
0.000000 0.000460 0.000000
-0.000000 0.000465 0.000000
0.000000 0.000470 0.000000
0.000000 0.000475 0.000000
-0.000000 0.000480 0.000000
0.000000 0.000485 0.000000
0.000000 0.000490 0.000000
-0.000000 0.000496 0.000000
0.000002 0.000500 0.000000
0.000871 0.000922 0.000000
0.000880 0.000922 0.000000
0.000927 0.000916 0.000000
0.000932 0.000914 0.000000
0.000932 0.000914 0.000000
0.000939 0.000912 0.000000
0.000946 0.000910 0.000000
0.000941 0.000912 0.000000
0.000956 0.000908 0.000000
0.000982 0.000901 0.000000
0.000987 0.000897 0.000000
0.000991 0.000895 0.000000
0.000995 0.000892 0.000000
0.000999 0.000889 0.000000
0.001003 0.000886 0.000000
0.001007 0.000882 0.000000
0.001010 0.000880 0.000000
0.001015 0.000876 0.000000
0.001020 0.000872 0.000000
0.001041 0.000863 0.000000
0.000005 0.000445 0.000000
0.000005 0.000450 0.000000
0.000005 0.000455 0.000000
0.000005 0.000460 0.000000
0.000005 0.000465 0.000000
0.000005 0.000470 0.000000
0.000005 0.000475 0.000000
0.000005 0.000480 0.000000
0.000005 0.000485 0.000000
0.000006 0.000490 0.000000
0.000003 0.000496 0.000000
0.000006 0.000499 0.000000
0.000921 0.000915 0.000000
0.000928 0.000907 0.000000
0.000962 0.000904 0.000000
0.000968 0.000903 0.000000
0.000973 0.000901 0.000000
0.000977 0.000900 0.000000
0.000979 0.000898 0.000000
0.000982 0.000894 0.000000
0.000985 0.000892 0.000000
0.000991 0.000888 0.000000
0.000997 0.000884 0.000000
0.001002 0.000881 0.000000
0.001006 0.000876 0.000000
0.001014 0.000871 0.000000
0.001017 0.000868 0.000000
0.001022 0.000865 0.000000
0.001033 0.000863 0.000000
0.001035 0.000862 0.000000
0.001030 0.000865 0.000000
0.001039 0.000861 0.000000
0.000010 0.000445 0.000000
0.000010 0.000450 0.000000
0.000010 0.000455 0.000000
0.000010 0.000460 0.000000
0.000010 0.000465 0.000000
0.000010 0.000469 0.000000
0.000010 0.000475 0.000000
0.000011 0.000480 0.000000
0.000009 0.000486 0.000000
0.000012 0.000489 0.000000
0.000009 0.000497 0.000000
0.000011 0.000498 0.000000
0.000922 0.000911 0.000000
0.000931 0.000905 0.000000
0.000947 0.000905 0.000000
0.000955 0.000905 0.000000
0.000959 0.000904 0.000000
0.000965 0.000902 0.000000
0.000956 0.000898 0.000000
0.000965 0.000896 0.000000
0.000971 0.000895 0.000000
0.000976 0.000893 0.000000
0.000986 0.000887 0.000000
0.000990 0.000885 0.000000
0.000991 0.000880 0.000000
0.000995 0.000877 0.000000
0.001001 0.000876 0.000000
0.001011 0.000872 0.000000
0.001025 0.000864 0.000000
0.001027 0.000863 0.000000
0.001033 0.000857 0.000000
0.001035 0.000852 0.000000
0.000015 0.000445 0.000000
0.000016 0.000450 0.000000
0.000014 0.000456 0.000000
0.000017 0.000460 0.000000
0.000014 0.000469 0.000000
0.000016 0.000464 0.000000
0.000014 0.000476 0.000000
0.000016 0.000480 0.000000
0.000014 0.000485 0.000000
0.000016 0.000489 0.000000
0.000014 0.000495 0.000000
0.000016 0.000497 0.000000
0.000025 0.000500 0.000000
0.000935 0.000907 0.000000
0.000950 0.000904 0.000000
0.000946 0.000900 0.000000
0.000960 0.000897 0.000000
0.000969 0.000900 0.000000
0.000973 0.000890 0.000000
0.000979 0.000888 0.000000
0.000975 0.000885 0.000000
0.000982 0.000886 0.000000
0.000994 0.000873 0.000000
0.000997 0.000881 0.000000
0.001002 0.000870 0.000000
0.001007 0.000871 0.000000
0.001008 0.000866 0.000000
0.001013 0.000866 0.000000
0.001018 0.000861 0.000000
0.001022 0.000860 0.000000
0.001026 0.000856 0.000000
0.001034 0.000850 0.000000
0.000019 0.000445 0.000000
0.000021 0.000450 0.000000
0.000018 0.000455 0.000000
0.000022 0.000459 0.000000
0.000019 0.000469 0.000000
0.000025 0.000467 0.000000
0.000018 0.000475 0.000000
0.000022 0.000478 0.000000
0.000019 0.000486 0.000000
0.000021 0.000491 0.000000
0.000021 0.000497 0.000000
0.000022 0.000499 0.000000
0.000039 0.000500 0.000000
0.000932 0.000894 0.000000
0.000939 0.000901 0.000000
0.000947 0.000895 0.000000
0.000952 0.000901 0.000000
0.000963 0.000891 0.000000
0.000964 0.000887 0.000000
0.000979 0.000883 0.000000
0.000969 0.000885 0.000000
0.000980 0.000877 0.000000
0.000983 0.000869 0.000000
0.000988 0.000867 0.000000
0.000993 0.000867 0.000000
0.001003 0.000864 0.000000
0.001009 0.000856 0.000000
0.001015 0.000858 0.000000
0.001019 0.000854 0.000000
0.001027 0.000851 0.000000
0.001030 0.000854 0.000000
0.001031 0.000846 0.000000
0.000024 0.000445 0.000000
0.000026 0.000450 0.000000
0.000024 0.000455 0.000000
0.000026 0.000461 0.000000
0.000021 0.000465 0.000000
0.000024 0.000472 0.000000
0.000023 0.000476 0.000000
0.000026 0.000481 0.000000
0.000023 0.000485 0.000000
0.000026 0.000488 0.000000
0.000026 0.000492 0.000000
0.000027 0.000500 0.000000
0.000901 0.000920 0.000000
0.000938 0.000904 0.000000
0.000942 0.000904 0.000000
0.000958 0.000893 0.000000
0.000952 0.000890 0.000000
0.000969 0.000891 0.000000
0.000970 0.000881 0.000000
0.000960 0.000886 0.000000
0.000970 0.000877 0.000000
0.000984 0.000880 0.000000
0.000987 0.000874 0.000000
0.000986 0.000878 0.000000
0.000998 0.000872 0.000000
0.000999 0.000867 0.000000
0.001012 0.000861 0.000000
0.001007 0.000861 0.000000
0.001022 0.000852 0.000000
0.001015 0.000852 0.000000
0.001025 0.000847 0.000000
0.001028 0.000842 0.000000
0.000030 0.000445 0.000000
0.000031 0.000450 0.000000
0.000029 0.000456 0.000000
0.000031 0.000460 0.000000
0.000031 0.000464 0.000000
0.000028 0.000469 0.000000
0.000032 0.000472 0.000000
0.000030 0.000477 0.000000
0.000030 0.000486 0.000000
0.000031 0.000492 0.000000
0.000033 0.000497 0.000000
0.000030 0.000499 0.000000
0.000048 0.000500 0.000000
0.000927 0.000901 0.000000
0.000942 0.000892 0.000000
0.000951 0.000894 0.000000
0.000948 0.000890 0.000000
0.000956 0.000888 0.000000
0.000964 0.000878 0.000000
0.000977 0.000874 0.000000
0.000975 0.000879 0.000000
0.000980 0.000871 0.000000
0.000989 0.000871 0.000000
0.000995 0.000858 0.000000
0.000996 0.000863 0.000000
0.001000 0.000859 0.000000
0.001005 0.000852 0.000000
0.001004 0.000857 0.000000
0.001013 0.000847 0.000000
0.001018 0.000848 0.000000
0.001023 0.000844 0.000000
0.001026 0.000838 0.000000
0.000035 0.000445 0.000000
0.000035 0.000450 0.000000
0.000034 0.000455 0.000000
0.000038 0.000455 0.000000
0.000034 0.000466 0.000000
0.000037 0.000472 0.000000
0.000032 0.000479 0.000000
0.000042 0.000479 0.000000
0.000035 0.000483 0.000000
0.000034 0.000488 0.000000
0.000037 0.000491 0.000000
0.000036 0.000498 0.000000
0.000859 0.000919 0.000000
0.000897 0.000921 0.000000
0.000937 0.000895 0.000000
0.000943 0.000887 0.000000
0.000957 0.000881 0.000000
0.000949 0.000878 0.000000
0.000964 0.000882 0.000000
0.000965 0.000874 0.000000
0.000973 0.000873 0.000000
0.000971 0.000866 0.000000
0.000978 0.000861 0.000000
0.000987 0.000857 0.000000
0.000991 0.000861 0.000000
0.000995 0.000852 0.000000
0.001010 0.000850 0.000000
0.001003 0.000839 0.000000
0.001014 0.000842 0.000000
0.001017 0.000842 0.000000
0.001021 0.000839 0.000000
0.001023 0.000834 0.000000
0.000040 0.000445 0.000000
0.000041 0.000450 0.000000
0.000036 0.000462 0.000000
0.000040 0.000458 0.000000
0.000041 0.000463 0.000000
0.000040 0.000468 0.000000
0.000041 0.000473 0.000000
0.000037 0.000477 0.000000
0.000041 0.000488 0.000000
0.000042 0.000491 0.000000
0.000041 0.000497 0.000000
0.000044 0.000498 0.000000
0.000721 0.000844 0.000000
0.000924 0.000908 0.000000
0.000928 0.000898 0.000000
0.000939 0.000882 0.000000
0.000953 0.000884 0.000000
0.000959 0.000876 0.000000
0.000954 0.000878 0.000000
0.000969 0.000871 0.000000
0.000977 0.000867 0.000000
0.000981 0.000864 0.000000
0.000974 0.000863 0.000000
0.000983 0.000856 0.000000
0.000991 0.000855 0.000000
0.000998 0.000847 0.000000
0.001000 0.000854 0.000000
0.001002 0.000849 0.000000
0.001007 0.000845 0.000000
0.001011 0.000838 0.000000
0.001017 0.000836 0.000000
0.001020 0.000830 0.000000
0.000044 0.000445 0.000000
0.000047 0.000450 0.000000
0.000044 0.000454 0.000000
0.000046 0.000461 0.000000
0.000044 0.000467 0.000000
0.000046 0.000474 0.000000
0.000046 0.000479 0.000000
0.000039 0.000483 0.000000
0.000052 0.000486 0.000000
0.000045 0.000483 0.000000
0.000048 0.000493 0.000000
0.000050 0.000498 0.000000
0.000726 0.000850 0.000000
0.000918 0.000916 0.000000
0.000942 0.000896 0.000000
0.000948 0.000884 0.000000
0.000945 0.000881 0.000000
0.000959 0.000872 0.000000
0.000961 0.000868 0.000000
0.000966 0.000868 0.000000
0.000969 0.000861 0.000000
0.000979 0.000857 0.000000
0.000986 0.000862 0.000000
0.000993 0.000849 0.000000
0.000984 0.000851 0.000000
0.000992 0.000845 0.000000
0.001001 0.000844 0.000000
0.001007 0.000841 0.000000
0.001005 0.000835 0.000000
0.001011 0.000834 0.000000
0.001015 0.000832 0.000000
0.001017 0.000826 0.000000
0.000049 0.000445 0.000000
0.000052 0.000450 0.000000
0.000048 0.000456 0.000000
0.000054 0.000458 0.000000
0.000047 0.000464 0.000000
0.000050 0.000471 0.000000
0.000052 0.000467 0.000000
0.000051 0.000477 0.000000
0.000047 0.000488 0.000000
0.000052 0.000491 0.000000
0.000057 0.000492 0.000000
0.000053 0.000498 0.000000
0.000803 0.000903 0.000000
0.000910 0.000912 0.000000
0.000922 0.000903 0.000000
0.000939 0.000885 0.000000
0.000947 0.000875 0.000000
0.000954 0.000873 0.000000
0.000950 0.000869 0.000000
0.000956 0.000868 0.000000
0.000966 0.000857 0.000000
0.000965 0.000863 0.000000
0.000969 0.000855 0.000000
0.000979 0.000851 0.000000
0.000986 0.000846 0.000000
0.000987 0.000850 0.000000
0.000994 0.000841 0.000000
0.000997 0.000835 0.000000
0.000999 0.000839 0.000000
0.001008 0.000830 0.000000
0.001012 0.000827 0.000000
0.001014 0.000822 0.000000
0.000054 0.000445 0.000000
0.000057 0.000450 0.000000
0.000052 0.000455 0.000000
0.000052 0.000463 0.000000
0.000059 0.000467 0.000000
0.000053 0.000473 0.000000
0.000058 0.000476 0.000000
0.000056 0.000480 0.000000
0.000052 0.000483 0.000000
0.000057 0.000486 0.000000
0.000056 0.000497 0.000000
0.000059 0.000496 0.000000
0.000825 0.000910 0.000000
0.000916 0.000917 0.000000
[...]
POINT_DATA 10950
SCALARS density float 1
LOOKUP_TABLE default
4428.020447
4433.652683
4428.680179
4427.784636
4431.168470
4424.310602
4435.316556
4428.966114
4428.901790
4417.890525
4429.646584
4404.382703
4424.411529
4421.948230
4416.817973
4437.520466
4439.138234
4438.709625
4448.882541
4449.782437
4426.095788
4427.041379
4395.917770
4431.925764
4428.274159
4407.978677
4442.601707
4439.148288
4416.254695
4447.220920
4421.195853
4406.071970
4430.159625
4426.530753
4423.826789
4428.275237
4438.202406
4421.956876
4427.492287
4421.952455
4424.370256
4434.653938
4450.429108
4408.985555
4416.517786
4410.770004
4413.524183
4411.168887
4420.226253
4418.568184
4445.935809
4458.573406
4437.195847
4435.216702
4426.777786
4378.989515
4430.990850
4402.374029
4433.489326
4465.072765
4420.304263
4432.690674
4404.770259
4403.056663
4421.959071
4427.481941
4442.396333
4422.314050
4422.925140
4423.822935
4451.950342
4394.817754
4465.359130
4381.877378
4449.303580
4397.862375
4459.070963
4460.508609
4446.570248
4404.534538
4421.523931
4404.692847
4462.001381
4424.923745
4421.895715
4385.503367
4421.147332
4431.337796
4384.917042
4430.741418
4448.815940
4409.349446
4423.067623
4432.582694
4454.883444
4416.155885
4422.766171
4433.013327
4434.588595
4420.818076
4414.872567
4441.549482
4455.582145
4386.582901
4473.618129
4387.544494
4509.302970
4405.153981
4435.673651
4393.451954
4421.067579
4440.322712
4482.307543
4452.299659
4451.094131
4408.066154
4427.033312
4420.353170
4415.255152
4471.915287
4416.745444
4452.418537
4428.786147
4462.373409
4437.554124
4352.650498
4502.208260
4449.497225
4436.398920
4430.193113
4437.351096
4438.435167
4424.724927
4453.144305
4430.321803
4448.565346
4469.021153
4369.122278
4467.482591
4435.101899
4418.769000
4449.097794
4464.636011
4399.715580
4459.751955
4432.452544
4451.016767
4442.024829
4443.654979
4394.418780
4399.944165
4424.843213
4406.676532
4413.188176
4406.328550
4457.679175
4457.857931
4387.225310
4378.396066
4418.989302
4432.942429
4435.385582
4432.824025
4409.690309
4433.128082
4418.022288
4465.511258
4360.548376
4431.345980
4472.472553
4415.041189
4424.583064
4431.849584
4418.638326
4376.188810
4380.210577
4470.476978
4410.286452
4421.946947
4418.272495
4470.971356
4455.373690
4425.208954
4455.601712
4436.692299
4453.291148
4393.168235
4429.724556
4431.619938
4426.445393
4478.216496
4409.263761
4425.616129
4429.935326
4426.771457
4445.768579
4438.916563
4437.559076
4387.607713
4450.617652
4441.698950
4407.997949
4456.777285
4418.924711
4424.206668
4437.574142
4465.835333
4413.105718
4408.558545
4467.971217
4438.771038
4459.763736
4417.186232
4439.451631
4463.627643
4452.927229
4448.381681
4398.904724
4408.272346
4462.105226
4429.024203
4375.716740
4429.607649
4438.564693
4431.448158
4415.553329
4432.961332
4438.714267
4433.388394
4437.052740
4456.615920
4431.657200
4410.292931
4433.209601
4413.100195
4446.641337
4419.020686
4423.489030
4381.694108
4415.460143
4445.624191
4454.523701
4404.603169
4411.070273
4414.627320
4440.022678
4413.990721
4441.379321
4403.300496
4452.803319
4444.835135
4469.838299
4455.465686
4453.781869
4403.217117
4415.229151
4430.678862
4436.431169
4405.785292
4449.871270
4429.612087
4436.808780
4436.387329
4416.429861
4452.407355
4430.214328
4430.716971
4422.572114
4425.771376
4460.263078
4406.783548
4433.493414
4403.364639
4442.836759
4439.240905
4430.246113
4428.340042
4447.667571
4445.320488
4405.722802
4436.426208
4422.561906
4394.720577
4455.506246
4412.148532
4395.386951
4428.910927
4431.260514
4436.148346
4418.605462
4413.544449
4422.124958
4399.372294
4425.054145
4447.559110
4420.888786
4447.185553
4420.869105
4466.085765
4434.385344
4434.727555
4434.975875
4414.909676
4440.103293
4422.023658
4427.464996
4431.446168
4451.515418
4423.476201
4429.417939
4433.029416
4412.737650
4443.549700
4453.010778
4423.113461
4428.113420
4442.720526
4421.718845
4442.916503
4425.853733
4428.950766
4428.931960
4426.248718
4440.069459
4446.787154
4459.969266
4419.735013
4373.999524
4384.037051
4423.395146
4522.149683
4406.262359
4433.796493
4432.104268
4393.607086
4445.920606
4431.456206
4389.342088
4462.431771
4451.738920
4431.824019
4424.958745
4448.193167
4442.792356
4400.538339
4452.703461
4431.568182
4451.259703
4409.703855
4430.674524
4415.503856
4428.792030
4435.837071
4432.179751
4440.518641
4405.106708
4448.029320
4459.422551
4422.952021
4463.809534
4476.924617
4360.994533
4406.890302
4396.255329
4429.028015
4428.359266
4429.678537
4398.677838
4456.541807
4441.390500
4413.651467
4428.271115
4430.499484
4400.389284
4435.863782
4436.376972
4415.506709
4444.413018
4458.623940
4395.487154
4430.956003
4449.052565
4424.552000
4421.351254
4421.286981
4428.170126
4416.147629
4389.134761
4438.327922
4431.151309
4406.903278
4435.220595
4434.429937
4433.237181
4437.123247
4429.232396
4411.512014
4428.791750
4420.306484
4388.378128
4383.593423
4419.432427
4422.125056
4430.155387
4441.873617
4443.613633
4436.598608
4415.048033
4432.607042
4435.642683
4397.289259
4422.509279
4441.496800
4421.996440
4441.196294
4430.140610
4443.270609
4409.980544
4439.860047
4416.580629
4447.350980
4467.506188
4427.324367
4376.777611
4456.049954
4379.462468
4474.955962
4422.685740
4414.767179
4430.912955
4401.879191
4389.327578
4439.738644
4387.863617
4442.409677
4407.633650
4426.131774
4443.510664
4448.343241
4426.385195
4409.485717
4457.412523
4436.693413
4422.288033
4442.689300
4437.864245
4417.084567
4432.966638
4430.128388
4428.570129
4403.117791
4451.724782
4444.097895
4417.762799
4429.343771
4446.975394
4419.686411
4404.989746
4435.901349
4441.786744
4428.098544
4434.221563
4437.919439
4461.976108
4450.616567
4451.310975
4442.270925
4455.106648
4387.213078
4426.644797
4425.002782
4424.277705
4444.138045
4453.668724
4439.195313
4418.480801
4425.381303
4406.972824
4439.879497
4432.039261
4436.334080
4421.966024
4470.877997
4391.211690
4418.451690
4409.821130
4447.816631
4450.761980
4455.836332
4364.524228
4421.804541
4444.315311
4431.204491
4416.168498
4429.808819
4437.835458
4439.416506
4432.970304
4399.696356
4445.492319
4399.174251
4409.641155
4427.398720
4434.394240
4417.905687
4402.380951
4410.518070
4410.743922
4434.423321
4419.800741
4435.087090
4420.064855
4413.880528
4432.262401
4460.457930
4435.197306
4410.330176
4455.770102
4379.619745
4439.395235
4429.541842
4464.079412
4423.943003
4426.929021
4429.813493
4423.687550
4434.749413
4436.473109
4479.580453
4436.664498
4422.270724
4448.616344
4429.547667
4449.250868
4448.069234
4433.086170
4417.060327
4408.754962
4417.327493
4437.739496
4426.643199
4449.669107
4426.844523
4442.396531
4438.167251
4431.433500
4423.232039
4425.578277
4419.436992
4461.398280
4442.632153
4426.791669
4454.441258
4384.634794
4438.075196
4449.288738
4432.652894
4431.005935
4442.748946
4436.443978
4465.917220
4408.872614
4479.436548
4462.205995
4424.407735
4444.760637
4412.819397
4442.669974
4448.042324
4432.189289
4423.286762
4421.789820
4442.112213
4423.337617
4426.448382
4425.382987
4421.430617
4436.780541
4416.964887
4435.543628
4409.638341
4430.808875
4444.810071
4430.441192
4449.435686
4424.628068
4402.842860
4434.519659
4414.847074
4423.072766
4426.642659
4436.975912
4423.544387
4429.837658
4414.252759
4425.114995
4434.464945
4462.932051
4431.966858
4413.774480
4428.400517
4444.793758
4426.719760
4448.373195
4413.057885
4424.347620
4429.614028
4432.189176
4442.196019
4408.950130
4424.581622
4459.479215
4418.518942
4421.421569
4420.543828
4426.334279
4439.407218
4423.088321
4428.588403
4432.528641
4424.840085
4439.895075
4441.999014
4455.916509
4446.157768
4445.518703
4409.420941
4424.859437
4478.685979
4410.246950
4418.321420
4453.013110
4373.632015
4428.747315
4426.028112
4422.753995
4427.692649
4449.682916
4426.564886
4437.196760
4422.023106
4453.174595
4450.584318
4407.618262
4419.641705
4434.786981
4439.118362
4409.150955
4465.625297
4475.781786
4396.029946
4507.415747
4430.028495
4417.259114
4436.082490
4473.312788
4438.946273
4430.743150
4367.960487
4438.214964
4409.066234
4449.517657
4464.206112
4477.568963
4451.977289
4445.426396
4406.402477
4462.795580
4446.800505
4408.964502
4415.979636
4426.505171
4417.914045
4416.514920
4410.964629
4437.579028
4415.087622
4427.053170
4428.377533
4425.067775
4441.993409
4374.066759
4436.906072
4433.034799
4424.077686
4427.239678
4427.601219
4445.031012
4451.243684
4409.981280
4444.788377
4430.419227
4408.773288
4353.848920
4462.606290
4394.428273
4430.413981
4412.429308
4435.723023
4396.925513
4440.460331
4424.354945
4447.179397
4435.149214
4440.682962
4394.973622
4452.130166
4437.093503
4436.545397
4435.148540
4442.585898
4398.788265
4439.199438
4375.738846
4374.089189
4472.505472
4424.645560
4431.706208
4393.217934
4444.882409
4443.882885
4434.405095
4437.426245
4459.305223
4452.427531
4397.114501
4359.543867
4454.734165
4371.704349
4392.954367
4448.545827
4432.554697
4449.187595
4403.407110
4419.401045
4416.480924
4435.604491
4411.532011
4473.479653
4430.887813
4433.684708
4408.072342
4412.320454
4441.456460
4458.229485
4464.222216
4441.927555
4430.345950
4430.504709
4440.664668
4411.948151
4389.797234
4364.099124
4434.289089
4404.091349
4440.534726
4393.109193
4430.890516
4438.493664
4447.713834
4455.856455
4481.647296
4424.362347
4430.095294
4445.843724
4415.758666
4458.593156
4419.457013
4425.816886
4429.963483
4429.818703
4429.939025
4429.827124
4429.495483
4429.373627
4429.187706
4429.604217
4430.177190
4431.053089
4431.315152
4431.237477
4430.883139
4430.404114
4427.260336
4429.463022
4429.158246
4429.711649
4430.520188
4431.584452
4432.658114
4433.359170
4433.300546
4431.914270
4430.580235
4429.747970
4429.937657
4430.848554
4431.235710
4428.297772
4429.429171
4429.790823
4429.818821
4429.477044
4428.418062
4427.681118
4426.799080
4427.305490
4428.801574
4430.808427
4431.570674
4430.950558
4430.366551
4428.921402
4428.732348
4429.256002
4429.055955
4429.224970
4430.198167
4431.325765
4432.591463
4433.707566
4433.315001
4431.864883
4429.563621
4428.617276
4428.353085
4429.121612
4429.716522
4429.136933
4429.477505
4429.814726
4429.900271
4429.145587
4428.273357
4427.107673
4426.013376
4426.546622
4427.837381
4430.290792
4430.711023
4431.122223
4428.678623
4429.214035
4429.107080
4429.337577
4428.973806
4428.986888
4430.118003
4430.877853
4432.504869
4433.201260
4433.250226
4431.088182
4429.360774
4427.557179
4428.138890
4428.000221
4428.832017
4429.258331
4429.307741
4430.067771
4429.613184
4429.121548
4428.023957
4426.830426
4425.713958
4425.984102
4427.601575
4429.484022
4430.634944
4429.484117
4428.005616
4427.726224
4429.045339
4429.222920
4428.958505
4428.819124
4429.945434
4430.666282
4432.227832
4432.919184
4433.038645
4430.687022
4429.228001
4427.112334
4428.392002
4427.502844
4428.012531
4428.814550
4429.441525
4429.809936
4429.431169
4429.207970
4427.551690
4427.048304
4425.043346
4426.173079
4426.860475
4429.727645
4430.272652
4430.919995
4429.185638
4430.995990
4428.965742
4429.184273
4428.725994
4428.874677
4429.537590
4430.793653
4431.537211
4433.161953
4432.371709
4430.888932
4428.740491
4427.197439
4428.267862
4428.417552
4428.322014
4428.889497
4429.482589
4429.609069
4429.650071
4428.589644
4427.881826
4426.334822
4425.323322
4425.561936
4427.049919
4428.826874
4430.649306
4428.546135
4428.533891
4426.340190
4428.738758
4429.129569
4428.507085
4428.559504
4429.518578
4430.294368
4431.511371
4432.806550
4432.496354
4430.563795
4428.700440
4426.890254
4427.556194
4427.352108
4427.276999
4428.764368
4429.205566
4429.743520
4429.388915
4428.548227
4427.617542
4426.506192
4425.023170
4425.742038
4426.536760
4429.144323
4430.176838
4431.218274
4428.569466
4431.031841
4434.550448
4445.169502
4448.357024
4434.951912
4426.953269
4454.223244
4431.340490
4407.688794
4401.815367
4451.082348
4452.833955
4404.217233
4384.891544
4473.143589
4426.784289
4427.107887
4428.572109
4428.858881
4428.494040
4428.017482
4429.621286
4429.862207
4431.462887
4432.587628
4432.394991
4430.259627
4428.764275
4426.693330
4428.057837
4429.754018
4431.878660
4437.398639
4443.872739
4409.332755
4408.519355
4430.174513
4439.761048
4436.095474
4402.532127
4397.248318
4431.728100
4445.007030
4435.493407
4422.866430
4429.620360
4411.832827
4404.416461
4428.368832
4429.075479
4429.694001
4429.137230
4428.581611
4427.199518
4426.819177
4424.635286
4425.794581
4426.076836
4428.626730
4430.044139
4429.941079
4428.769851
4429.697890
4451.845398
4447.594277
4433.748085
4422.191827
4411.224442
4450.156371
4421.655505
4420.359095
4403.967965
4436.285991
4446.921541
4419.907613
4441.594094
4446.341449
4443.108100
4431.061456
4428.422624
4428.805886
4428.121701
4427.991321
4429.055597
4430.043006
4430.706008
4432.852869
4431.567725
4430.401323
4427.977320
4425.979472
4427.463586
4426.536691
4430.718207
4423.567258
4400.811312
4416.278828
4383.655001
4394.871935
4451.157695
4428.816244
4444.791740
4446.142864
4455.070832
4433.041720
4428.710357
4380.560742
4388.204087
4448.804119
4450.401687
4428.180889
4429.091914
4429.546837
4428.973582
4428.562366
4426.998774
4426.862221
4424.464822
4425.724109
4425.421991
4428.280581
4429.169338
4428.660548
4425.929893
4424.959769
4439.823228
4455.226670
4438.616732
4451.954162
4443.983794
4432.440434
4441.847206
4434.311899
4402.282849
4424.845492
4396.434987
4435.073469
4418.463260
4418.396106
4431.624166
4421.180660
4428.033492
4428.775646
4427.789059
4427.971059
4428.724748
4430.076917
4430.394378
4432.743872
4431.407048
4430.203534
4427.428359
4425.606047
4426.198837
4426.109208
4423.955163
4404.322604
4415.618594
4425.224571
4414.133345
4483.345927
4385.470670
4434.710305
4441.076928
4436.124015
4391.341465
4394.550860
4406.638273
4426.414807
4408.778077
4442.798789
4417.764012
4428.369780
4429.109340
4429.474558
4429.203896
4428.252716
4427.394107
4426.408913
4425.002480
4425.154221
4425.645937
4427.444140
4429.327492
4427.271586
4426.261867
4426.730915
4447.657029
4415.052644
4443.470557
4397.777467
4358.362321
4446.262101
4432.023294
4434.506044
4455.010510
4437.270887
4419.979611
4464.671849
4451.185663
4437.385535
4472.289723
4401.016960
4428.013746
4428.563172
4427.828347
4427.503011
4428.833182
4429.606452
4430.368016
4432.513710
4431.601369
4429.957518
4427.624530
4425.333075
4426.805519
4427.058985
4425.639475
4441.578542
4424.211178
4441.193224
4456.210169
4413.268724
4467.538824
4414.776382
4424.062212
4426.369777
4405.329995
4453.381459
4383.308270
4461.260649
4374.494303
4435.429519
4429.291273
4428.248729
4428.797378
4429.740511
4428.975684
4428.490610
4426.878573
4427.107087
4424.458849
4426.021979
4424.854025
4428.115387
4429.337978
4428.350090
4427.570205
4428.412352
4433.105945
4443.117030
4397.975798
4423.007615
4449.095272
4434.722154
4421.899080
4424.948694
4352.098660
4441.096162
4402.960703
4417.875005
4471.942879
4443.162114
4405.399709
4390.666149
4428.039361
4428.243196
4428.060811
4426.738551
4429.120298
4429.006301
4430.389684
4432.334190
4431.566741
4430.022308
4427.538334
4425.540242
4428.027700
4426.450249
4429.369926
4446.157080
4436.768235
4451.398405
4458.395907
4372.468628
4418.785243
4428.402483
4440.284670
4425.362363
4440.781570
4428.173109
4445.034995
4383.673431
4425.279732
4379.308649
4446.298063
4428.028452
4428.762372
4429.636519
4429.103795
4428.278299
4426.897435
4427.185153
4424.613248
4425.992436
4424.671465
4427.952133
4429.065239
4428.467455
4427.504157
4428.077915
4441.325407
4432.039648
4446.446361
4463.334719
4460.456546
4429.658586
4458.670856
4463.487450
4377.104218
4452.614155
4431.967392
4439.515855
4451.163191
4390.769517
4425.173887
4390.943849
4427.945024
4428.430884
4427.518003
4426.906697
4428.326339
4429.326998
4429.726815
4432.328574
4431.492459
4429.886484
4427.313910
4425.504434
4426.652585
4427.079740
4424.958891
4410.716802
4429.991096
4414.500795
4408.928538
4422.427602
4414.178885
4429.711465
4438.354683
4461.195117
4436.769393
4461.303670
4400.690449
4420.270477
4418.388677
4428.593552
4446.544825
4427.775855
4429.038911
4429.403371
4429.051263
4428.459487
4427.057185
4427.016045
4425.445485
4425.403728
4425.152824
4426.848389
4429.101092
4426.903265
4426.774110
4425.321824
4427.439512
4451.060115
4439.611310
4443.061369
4437.958076
4432.797285
4443.933281
4437.097757
4421.848243
4414.923691
4426.738585
4456.751323
4421.022892
4417.300322
4517.381981
4443.537217
4427.649404
4428.985033
4426.541952
4427.725712
4427.217888
4430.351328
4428.594188
4433.078796
4430.850393
4430.302457
4426.520417
4425.611171
4425.940911
4426.184684
4426.558507
4418.096894
4470.954108
4374.049031
4452.588643
4443.932567
4423.943965
4426.523710
4422.159285
4394.963472
4426.527885
4436.051117
4446.365520
4386.093604
4408.625730
4403.421526
4453.669565
4427.555008
4429.635052
4428.802471
4430.062108
4427.615069
4428.119625
4425.760305
4426.320274
4424.828598
4425.256110
4426.317086
4428.815319
4426.470850
4427.281047
4424.428480
4437.199198
4428.504310
4428.094220
4419.675572
4442.859882
4431.193880
4419.507461
4440.932805
4455.825451
4430.924640
4405.840147
4413.366116
4413.515336
4431.298910
4398.595405
4396.724943
4427.703671
4428.632221
4426.919531
4426.738676
4427.993982
4429.026525
4429.100163
4432.956505
4430.848815
4430.702416
4426.331744
4426.077953
4424.922344
4426.982998
4424.091106
4407.213782
4414.601657
4431.240219
4415.540406
4381.865276
4437.105533
4427.261269
4426.490467
4410.692290
4474.505765
4427.714126
4434.187200
4443.577894
4398.678592
4425.596582
4431.784776
4428.003942
4428.960509
4429.763482
4429.671901
4427.837281
4428.033916
4426.697902
4425.623138
4426.683072
4424.391524
4426.719396
4428.393875
4427.853545
4425.994757
4426.695530
4419.519003
4419.819477
4433.028739
4460.491351
4395.404263
4429.099419
4442.358286
4427.652267
4459.541153
4422.404170
4440.297443
4414.269713
4440.099029
4429.332760
4415.915587
4415.944264
4427.982301
4428.321033
4427.112476
4425.930096
4428.108820
4427.777272
4430.101070
4431.921089
4431.005715
4430.164197
4427.098410
4423.857327
4426.244945
4424.707825
4425.862990
4442.410633
4452.937347
4447.829239
4447.936587
4376.236947
4413.028393
4439.184067
4410.126917
4469.922694
4455.800609
4448.665554
4388.079597
4442.582026
4440.309653
4416.018353
4430.620388
4427.899055
4428.203404
4430.421436
4428.157476
4429.071896
4426.349944
4428.133574
4424.014047
4427.542913
4422.986530
4426.407726
4428.591714
4426.294227
4425.068356
4427.616237
4440.014639
4425.925999
4424.810043
4461.688008
4381.396614
4436.609084
4434.209452
4432.430716
4429.429283
4459.566242
4455.177905
4411.554234
4416.156295
4433.254938
4389.871769
4431.044565
4427.622597
4428.496548
4426.840639
4426.203599
4427.018084
4428.821141
4429.328289
4432.469733
4431.513318
4431.096125
4426.978673
4424.324038
4424.354860
4424.027793
4423.643889
4432.164827
4430.491107
4418.070421
4373.191288
4425.528426
4445.363836
4441.362891
4436.434279
4445.192814
4441.686592
4406.712131
4420.931602
4388.442890
4434.684061
4405.583808
4444.365340
4427.426249
4429.585429
4428.463832
4430.450811
4428.061932
4428.443620
4427.059457
4427.050175
4425.926087
4424.353924
4426.238893
4427.712885
4426.421315
4425.448728
4424.718913
4438.154599
4441.676330
4427.322342
4426.543886
4448.539254
4419.128309
4416.492285
4474.310205
4387.978105
4456.596413
4421.684322
4394.034741
4464.222606
4418.101249
4564.458749
4411.324121
4427.245852
4428.895711
4426.724435
4426.356014
4426.795740
4429.503219
4427.498392
4434.188786
4429.701339
4430.923369
4425.456657
4426.018031
4422.710466
4425.502023
4420.954662
4450.231756
4409.934281
4418.127736
4424.176895
4476.593684
4456.181717
4439.532148
4434.260909
4444.173444
4425.806447
4442.588126
4438.858149
4447.688458
4445.388465
4280.939885
4431.615553
4427.769181
4430.032274
4428.536166
4431.545581
4426.849222
4429.314825
4425.100344
4427.318526
4423.405933
4425.551423
4423.631248
4427.354014
4424.491569
4426.662110
4419.382326
4426.971762
4449.078896
4417.876795
4426.327529
4445.458067
4413.653857
4438.640958
4441.508334
4437.231048
4423.997740
4403.252966
4447.534272
4450.565902
4427.382794
4376.315408
4394.751487