# vtk DataFile Version 2.0
mfree iwf
ASCII

DATASET UNSTRUCTURED_GRID
POINTS 9048 float
0.000000 0.000445 0.000000
0.000000 0.000450 0.000000
0.000000 0.000455 0.000000
0.000000 0.000460 0.000000
0.000001 0.000465 0.000000
0.000001 0.000470 0.000000
0.000001 0.000475 0.000000
0.000001 0.000480 0.000000
0.000001 0.000485 0.000000
0.000001 0.000490 0.000000
0.000000 0.000496 0.000000
0.000002 0.000500 0.000000
0.000225 0.000632 0.000000
0.000226 0.000641 0.000000
0.000241 0.000684 0.000000
0.000244 0.000690 0.000000
0.000244 0.000690 0.000000
0.000246 0.000695 0.000000
0.000249 0.000702 0.000000
0.000249 0.000701 0.000000
0.000253 0.000712 0.000000
0.000266 0.000736 0.000000
0.000270 0.000741 0.000000
0.000273 0.000744 0.000000
0.000277 0.000748 0.000000
0.000281 0.000751 0.000000
0.000284 0.000754 0.000000
0.000289 0.000758 0.000000
0.000291 0.000760 0.000000
0.000296 0.000764 0.000000
0.000301 0.000769 0.000000
0.000321 0.000788 0.000000
0.000005 0.000445 0.000000
0.000006 0.000450 0.000000
0.000005 0.000455 0.000000
0.000006 0.000460 0.000000
0.000005 0.000465 0.000000
0.000006 0.000470 0.000000
0.000006 0.000475 0.000000
0.000006 0.000480 0.000000
0.000005 0.000485 0.000000
0.000007 0.000490 0.000000
0.000004 0.000496 0.000000
0.000006 0.000499 0.000000
0.000239 0.000680 0.000000
0.000250 0.000687 0.000000
0.000258 0.000717 0.000000
0.000261 0.000723 0.000000
0.000264 0.000727 0.000000
0.000266 0.000731 0.000000
0.000268 0.000733 0.000000
0.000272 0.000736 0.000000
0.000277 0.000741 0.000000
0.000280 0.000744 0.000000
0.000286 0.000749 0.000000
0.000290 0.000754 0.000000
0.000296 0.000757 0.000000
0.000301 0.000763 0.000000
0.000304 0.000766 0.000000
0.000308 0.000769 0.000000
0.000312 0.000778 0.000000
0.000315 0.000781 0.000000
0.000312 0.000778 0.000000
0.000319 0.000786 0.000000
0.000010 0.000445 0.000000
0.000011 0.000450 0.000000
0.000010 0.000455 0.000000
0.000011 0.000460 0.000000
0.000010 0.000466 0.000000
0.000011 0.000469 0.000000
0.000011 0.000476 0.000000
0.000011 0.000480 0.000000
0.000010 0.000486 0.000000
0.000012 0.000490 0.000000
0.000009 0.000497 0.000000
0.000011 0.000498 0.000000
0.000244 0.000680 0.000000
0.000252 0.000689 0.000000
0.000255 0.000704 0.000000
0.000257 0.000710 0.000000
0.000258 0.000715 0.000000
0.000261 0.000720 0.000000
0.000266 0.000715 0.000000
0.000270 0.000725 0.000000
0.000272 0.000729 0.000000
0.000276 0.000735 0.000000
0.000281 0.000736 0.000000
0.000284 0.000744 0.000000
0.000289 0.000743 0.000000
0.000295 0.000748 0.000000
0.000294 0.000753 0.000000
0.000300 0.000759 0.000000
0.000311 0.000771 0.000000
0.000312 0.000773 0.000000
0.000318 0.000780 0.000000
0.000324 0.000782 0.000000
0.000015 0.000445 0.000000
0.000016 0.000450 0.000000
0.000015 0.000456 0.000000
0.000016 0.000459 0.000000
0.000015 0.000465 0.000000
0.000017 0.000471 0.000000
0.000014 0.000475 0.000000
0.000017 0.000480 0.000000
0.000015 0.000485 0.000000
0.000017 0.000489 0.000000
0.000015 0.000495 0.000000
0.000017 0.000498 0.000000
0.000026 0.000500 0.000000
0.000252 0.000693 0.000000
0.000257 0.000706 0.000000
0.000262 0.000706 0.000000
0.000268 0.000719 0.000000
0.000264 0.000724 0.000000
0.000276 0.000725 0.000000
0.000277 0.000729 0.000000
0.000284 0.000730 0.000000
0.000284 0.000739 0.000000
0.000295 0.000743 0.000000
0.000290 0.000748 0.000000
0.000299 0.000752 0.000000
0.000303 0.000756 0.000000
0.000306 0.000759 0.000000
0.000308 0.000762 0.000000
0.000312 0.000765 0.000000
0.000318 0.000771 0.000000
0.000320 0.000775 0.000000
0.000327 0.000779 0.000000
0.000020 0.000445 0.000000
0.000021 0.000450 0.000000
0.000020 0.000456 0.000000
0.000022 0.000461 0.000000
0.000019 0.000466 0.000000
0.000022 0.000468 0.000000
0.000020 0.000475 0.000000
0.000022 0.000479 0.000000
0.000019 0.000486 0.000000
0.000022 0.000490 0.000000
0.000021 0.000497 0.000000
0.000022 0.000499 0.000000
0.000040 0.000500 0.000000
0.000259 0.000691 0.000000
0.000260 0.000698 0.000000
0.000264 0.000702 0.000000
0.000262 0.000712 0.000000
0.000270 0.000714 0.000000
0.000274 0.000721 0.000000
0.000280 0.000732 0.000000
0.000281 0.000725 0.000000
0.000287 0.000735 0.000000
0.000294 0.000732 0.000000
0.000302 0.000740 0.000000
0.000302 0.000747 0.000000
0.000305 0.000751 0.000000
0.000310 0.000755 0.000000
0.000317 0.000761 0.000000
0.000317 0.000766 0.000000
0.000324 0.000770 0.000000
0.000324 0.000775 0.000000
0.000330 0.000777 0.000000
0.000025 0.000445 0.000000
0.000026 0.000450 0.000000
0.000026 0.000455 0.000000
0.000025 0.000458 0.000000
0.000025 0.000466 0.000000
0.000026 0.000471 0.000000
0.000024 0.000476 0.000000
0.000027 0.000480 0.000000
0.000025 0.000485 0.000000
0.000026 0.000489 0.000000
0.000027 0.000492 0.000000
0.000028 0.000500 0.000000
0.000231 0.000659 0.000000
0.000256 0.000695 0.000000
0.000255 0.000699 0.000000
0.000267 0.000709 0.000000
0.000272 0.000709 0.000000
0.000273 0.000717 0.000000
0.000284 0.000717 0.000000
0.000279 0.000718 0.000000
0.000287 0.000727 0.000000
0.000290 0.000732 0.000000
0.000291 0.000738 0.000000
0.000296 0.000738 0.000000
0.000299 0.000744 0.000000
0.000309 0.000750 0.000000
0.000313 0.000759 0.000000
0.000315 0.000754 0.000000
0.000321 0.000766 0.000000
0.000322 0.000761 0.000000
0.000328 0.000770 0.000000
0.000333 0.000773 0.000000
0.000030 0.000445 0.000000
0.000031 0.000450 0.000000
0.000030 0.000458 0.000000
0.000033 0.000461 0.000000
0.000029 0.000464 0.000000
0.000031 0.000469 0.000000
0.000031 0.000473 0.000000
0.000031 0.000477 0.000000
0.000031 0.000485 0.000000
0.000032 0.000492 0.000000
0.000034 0.000497 0.000000
0.000031 0.000499 0.000000
0.000049 0.000500 0.000000
0.000255 0.000684 0.000000
0.000268 0.000697 0.000000
0.000268 0.000703 0.000000
0.000272 0.000705 0.000000
0.000276 0.000712 0.000000
0.000284 0.000721 0.000000
0.000288 0.000724 0.000000
0.000292 0.000721 0.000000
0.000298 0.000731 0.000000
0.000300 0.000736 0.000000
0.000306 0.000743 0.000000
0.000311 0.000742 0.000000
0.000311 0.000747 0.000000
0.000316 0.000749 0.000000
0.000319 0.000757 0.000000
0.000328 0.000760 0.000000
0.000327 0.000764 0.000000
0.000332 0.000767 0.000000
0.000336 0.000770 0.000000
0.000035 0.000445 0.000000
0.000035 0.000450 0.000000
0.000038 0.000454 0.000000
0.000034 0.000456 0.000000
0.000035 0.000466 0.000000
0.000037 0.000471 0.000000
0.000033 0.000479 0.000000
0.000042 0.000479 0.000000
0.000035 0.000484 0.000000
0.000035 0.000488 0.000000
0.000038 0.000491 0.000000
0.000036 0.000498 0.000000
0.000225 0.000622 0.000000
0.000230 0.000656 0.000000
0.000265 0.000690 0.000000
0.000272 0.000699 0.000000
0.000280 0.000708 0.000000
0.000282 0.000705 0.000000
0.000281 0.000714 0.000000
0.000288 0.000715 0.000000
0.000293 0.000726 0.000000
0.000297 0.000724 0.000000
0.000303 0.000732 0.000000
0.000308 0.000735 0.000000
0.000307 0.000738 0.000000
0.000321 0.000745 0.000000
0.000320 0.000751 0.000000
0.000325 0.000751 0.000000
0.000325 0.000756 0.000000
0.000331 0.000759 0.000000
0.000335 0.000763 0.000000
0.000339 0.000766 0.000000
0.000040 0.000445 0.000000
0.000041 0.000450 0.000000
0.000038 0.000460 0.000000
0.000042 0.000457 0.000000
0.000041 0.000465 0.000000
0.000040 0.000470 0.000000
0.000043 0.000475 0.000000
0.000037 0.000476 0.000000
0.000042 0.000487 0.000000
0.000043 0.000492 0.000000
0.000042 0.000497 0.000000
0.000045 0.000498 0.000000
0.000225 0.000536 0.000000
0.000249 0.000683 0.000000
0.000261 0.000687 0.000000
0.000277 0.000691 0.000000
0.000277 0.000704 0.000000
0.000284 0.000710 0.000000
0.000290 0.000711 0.000000
0.000292 0.000717 0.000000
0.000299 0.000720 0.000000
0.000300 0.000728 0.000000
0.000305 0.000725 0.000000
0.000312 0.000733 0.000000
0.000314 0.000738 0.000000
0.000319 0.000740 0.000000
0.000316 0.000744 0.000000
0.000325 0.000748 0.000000
0.000330 0.000752 0.000000
0.000335 0.000756 0.000000
0.000338 0.000760 0.000000
0.000343 0.000762 0.000000
0.000045 0.000445 0.000000
0.000046 0.000450 0.000000
0.000045 0.000454 0.000000
0.000046 0.000461 0.000000
0.000045 0.000465 0.000000
0.000046 0.000470 0.000000
0.000046 0.000479 0.000000
0.000040 0.000483 0.000000
0.000051 0.000485 0.000000
0.000046 0.000483 0.000000
0.000048 0.000493 0.000000
0.000051 0.000498 0.000000
0.000225 0.000543 0.000000
0.000239 0.000677 0.000000
0.000264 0.000696 0.000000
0.000277 0.000698 0.000000
0.000280 0.000698 0.000000
0.000288 0.000705 0.000000
0.000296 0.000711 0.000000
0.000297 0.000716 0.000000
0.000303 0.000720 0.000000
0.000309 0.000724 0.000000
0.000309 0.000729 0.000000
0.000318 0.000735 0.000000
0.000314 0.000728 0.000000
0.000324 0.000739 0.000000
0.000327 0.000743 0.000000
0.000331 0.000747 0.000000
0.000335 0.000750 0.000000
0.000338 0.000753 0.000000
0.000342 0.000756 0.000000
0.000346 0.000759 0.000000
0.000050 0.000445 0.000000
0.000051 0.000450 0.000000
0.000050 0.000456 0.000000
0.000051 0.000459 0.000000
0.000050 0.000465 0.000000
0.000052 0.000473 0.000000
0.000050 0.000471 0.000000
0.000051 0.000478 0.000000
0.000048 0.000488 0.000000
0.000053 0.000491 0.000000
0.000058 0.000492 0.000000
0.000054 0.000498 0.000000
0.000225 0.000578 0.000000
0.000242 0.000672 0.000000
0.000252 0.000680 0.000000
0.000273 0.000693 0.000000
0.000286 0.000697 0.000000
0.000286 0.000702 0.000000
0.000296 0.000703 0.000000
0.000292 0.000708 0.000000
0.000306 0.000714 0.000000
0.000302 0.000715 0.000000
0.000312 0.000721 0.000000
0.000319 0.000726 0.000000
0.000318 0.000731 0.000000
0.000323 0.000734 0.000000
0.000328 0.000738 0.000000
0.000332 0.000740 0.000000
0.000336 0.000745 0.000000
0.000341 0.000749 0.000000
0.000345 0.000752 0.000000
0.000349 0.000755 0.000000
0.000055 0.000445 0.000000
0.000056 0.000450 0.000000
0.000055 0.000455 0.000000
0.000056 0.000461 0.000000
0.000055 0.000464 0.000000
0.000056 0.000469 0.000000
0.000056 0.000477 0.000000
0.000058 0.000481 0.000000
0.000054 0.000483 0.000000
0.000057 0.000487 0.000000
0.000056 0.000497 0.000000
0.000060 0.000497 0.000000
0.000225 0.000591 0.000000
0.000237 0.000675 0.000000
0.000246 0.000678 0.000000
[...]
POINT_DATA 9048
SCALARS density float 1
LOOKUP_TABLE default
4428.644930
4429.469795
4427.007566
4424.857006
4422.512187
4429.507654
4444.153037
4434.578474
4440.724404
4422.895775
4432.925829
4397.782303
4452.538204
4436.652354
4436.270922
4432.764215
4444.126843
4436.136619
4449.534740
4452.561879
4438.042410
4428.679292
4410.287080
4454.936889
4427.357087
4415.485612
4447.633860
4432.369608
4417.592121
4449.554755
4441.911418
4450.656680
4429.453132
4427.247804
4425.479180
4434.050497
4439.784031
4412.312217
4408.273610
4416.409541
4413.292982
4418.523060
4448.339145
4400.114583
4418.361654
4438.852359
4401.754496
4433.057714
4407.105060
4410.199246
4437.251419
4445.673521
4400.741445
4422.899245
4429.945756
4404.937805
4432.955709
4398.533385
4397.148712
4409.791242
4408.102103
4414.460045
4412.997310
4426.397547
4422.750327
4432.140516
4438.324366
4411.761032
4434.269747
4434.079898
4462.744459
4403.252236
4475.507127
4366.920763
4473.202857
4404.537184
4407.903363
4466.993339
4430.019989
4397.540219
4415.411220
4413.219325
4438.235020
4404.121602
4437.485838
4401.337605
4441.851187
4439.067537
4396.256332
4416.686670
4455.486338
4394.967919
4444.568592
4429.890837
4447.857204
4403.740857
4431.705045
4447.384141
4448.772640
4442.553018
4435.203446
4382.420889
4454.806716
4367.284747
4475.171573
4383.386492
4517.995926
4400.588738
4436.030830
4347.007480
4437.432937
4437.668248
4392.193625
4467.237573
4451.721893
4428.260983
4415.961973
4428.036356
4448.196677
4434.528279
4424.348089
4441.422863
4466.645905
4483.441515
4441.824498
4382.383796
4512.122286
4449.986502
4435.140060
4418.363732
4431.412733
4406.510195
4461.684948
4445.672377
4451.448372
4446.566049
4462.395127
4372.209174
4468.554772
4438.239829
4420.609877
4390.536252
4465.518438
4388.006784
4514.804108
4442.697949
4431.789273
4454.424252
4409.197593
4405.888429
4432.280212
4432.147821
4403.780243
4433.683396
4376.115608
4460.653340
4433.358694
4437.772266
4325.184639
4451.585920
4427.338388
4431.575692
4430.614814
4442.548777
4447.336536
4389.667705
4458.594616
4373.424003
4430.139249
4463.330323
4418.259943
4426.188055
4426.442212
4485.447768
4370.557036
4346.729679
4462.626968
4439.066728
4439.111195
4423.228698
4442.927175
4436.172678
4445.800701
4415.577960
4464.692965
4442.065830
4371.699026
4480.872637
4460.434543
4390.508997
4447.337069
4419.162211
4437.782668
4422.360951
4418.359636
4443.885110
4415.170516
4450.306534
4434.458434
4458.420085
4438.845826
4387.565932
4460.770976
4423.943174
4421.928987
4437.949811
4442.970944
4478.169159
4429.524355
4388.186951
4426.843782
4453.971642
4423.080604
4457.289141
4397.180324
4412.299013
4413.522841
4437.752129
4392.985985
4439.083091
4466.800607
4399.686493
4409.515808
4437.083445
4437.728628
4422.222213
4428.338325
4415.355362
4425.051049
4417.508834
4441.224182
4453.170885
4431.502738
4440.735226
4419.977281
4445.530293
4486.853370
4422.100349
4438.859312
4378.528876
4461.349343
4442.113921
4441.880822
4425.338058
4414.588858
4406.541958
4429.430744
4440.391915
4444.765552
4420.417694
4425.144686
4451.247246
4424.361315
4449.602031
4414.064642
4424.959093
4421.888591
4432.612094
4437.473790
4391.673872
4430.428939
4433.904681
4440.190653
4411.169990
4442.180297
4435.069652
4432.739937
4422.859305
4771.814536
4343.691329
4433.122265
4445.110467
4400.980409
4414.664616
4447.016983
4433.118927
4462.682049
4438.764415
4419.212878
4424.608867
4427.426357
4430.127144
4448.724153
4457.742086
4384.798364
4425.964327
4416.835157
4436.250726
4432.480678
4411.647242
4429.312823
4425.771584
4445.077895
4402.632502
4431.324556
4417.645657
4451.808213
4418.197131
4467.198894
4437.832531
4529.369969
4419.605408
4428.924658
4456.882360
4437.191108
4432.752684
4403.501682
4428.293618
4430.488787
4439.899284
4429.113871
4426.548323
4409.979916
4419.398940
4421.074501
4423.972584
4451.331907
4450.848957
4422.796108
4418.278038
4436.456307
4422.830365
4439.334024
4434.601589
4396.745789
4473.735511
4447.455543
4379.393561
4383.178986
4419.399944
4531.012375
4411.179595
4505.495645
4467.696456
4454.592317
4453.742099
4432.999849
4426.594518
4431.111437
4449.547569
4447.401188
4418.629572
4429.840706
4425.217124
4445.891076
4437.026163
4456.170043
4449.012162
4435.315950
4412.889051
4428.818033
4428.511428
4427.923267
4431.371946
4408.943013
4426.031255
4450.007347
4407.542333
4404.711192
4445.034763
4487.177650
4364.184576
4420.559054
4390.358282
4599.212373
4413.431847
4493.594255
4429.731792
4452.912331
4429.972341
4423.250013
4462.249587
4438.660505
4443.343197
4454.446524
4429.830397
4426.982437
4407.224062
4424.082029
4431.581438
4438.967968
4429.568495
4432.711733
4416.200496
4425.893337
4414.685944
4437.688483
4406.842242
4414.950030
4451.930228
4441.918817
4405.533316
4461.749830
4401.484973
4453.307363
4441.458049
4420.343661
4571.349874
4438.913654
4397.587891
4394.443766
4433.827563
4427.986341
4457.178338
4411.140878
4441.299361
4438.356288
4444.771554
4408.189906
4444.520759
4450.484069
4445.520803
4423.481671
4427.841748
4420.894842
4428.213369
4433.501523
4414.195801
4423.680129
4435.814714
4444.216164
4402.739335
4428.500190
4402.456759
4451.042938
4380.010507
4416.806271
4437.747614
4559.905805
4416.903633
4463.334453
4385.129633
4444.551553
4423.484654
4425.173779
4456.273386
4422.473269
4426.615504
4434.977022
4440.749821
4408.001591
4430.777027
4407.504531
4434.892490
4438.724197
4427.290736
4429.365233
4423.023680
4429.047666
4434.870829
4423.707262
4407.005552
4427.132254
4449.025884
4438.213592
4445.874901
4401.031207
4441.747910
4442.316061
4444.083533
4664.191319
4413.349958
4417.324219
4453.904381
4445.615709
4412.929845
4455.808507
4445.411379
4415.813812
4431.453726
4406.226088
4429.017683
4417.215885
4456.728981
4423.210330
4442.161084
4427.025271
4412.917292
4431.799391
4423.058129
4437.852767
4420.316450
4429.178463
4442.232199
4414.626646
4394.624477
4429.179961
4442.290962
4444.747456
4416.574890
4413.568863
4448.638598
4428.673817
4414.236587
4416.723609
4354.190940
4422.532795
4477.633888
4442.379972
4429.697060
4434.586314
4479.400601
4437.974508
4428.754865
4461.938502
4450.651475
4444.096336
4418.773716
4425.367332
4440.190388
4417.792134
4426.774483
4429.793036
4410.445346
4425.257495
4407.804877
4441.081563
4443.830915
4424.262380
4440.134492
4390.336638
4498.002965
4359.580829
4431.053577
4425.994690
4546.554217
4476.811550
4418.311721
4448.373287
4409.798705
4442.760857
4403.080779
4435.292552
4459.105625
4424.674347
4443.888666
4429.613900
4450.619828
4426.069654
4445.828226
4425.158339
4441.679933
4413.360502
4429.253907
4442.354312
4422.858433
4432.362414
4446.622772
4429.097112
4401.485050
4442.681971
4413.997129
4439.406387
4443.972423
4451.738687
4469.594044
4527.039529
4534.698965
4505.553802
4433.366288
4447.420188
4385.590261
4457.802670
4453.158195
4447.631488
4447.673403
4443.060603
4430.521918
4412.584506
4436.732020
4420.749605
4432.694013
4406.219963
4438.516153
4425.371267
4429.372204
4416.055468
4425.664371
4449.750687
4410.623788
4411.105440
4434.603045
4435.533089
4439.514886
4427.134395
4418.173657
4405.249036
4422.519480
4409.194865
4417.568253
4404.124806
4392.652257
4432.145099
4402.132842
4472.067316
4404.729385
4408.080531
4429.371016
4444.273259
4428.607869
4456.978319
4432.516343
4447.827025
4437.908640
4450.570185
4427.269726
4418.971862
4423.199954
4441.997115
4426.324877
4413.763961
4455.877642
4443.482272
4424.142342
4419.099758
4427.883753
4435.305061
4438.347225
4434.106639
4425.543874
4409.986320
4402.131136
4535.975836
4462.348795
4418.247219
4438.208330
4421.264324
4383.658256
4492.377513
4398.782839
4423.980399
4422.634082
4427.102900
4425.682469
4437.749983
4420.279569
4410.215777
4425.854232
4428.618118
4427.804307
4412.872098
4422.788524
4438.305625
4398.299504
4431.484533
4412.077503
4416.585303
4386.112972
4454.804983
4491.347663
4370.832338
4567.067049
4408.175690
4475.343015
4420.909438
4455.325546
4426.829989
4442.064380
4391.997551
4464.993568
4420.748738
4481.142536
4436.156106
4412.469798
4424.069583
4449.972755
4415.021350
4471.376125
4444.821917
4416.949035
4433.478512
4418.811903
4450.833476
4442.647412
4414.456787
4434.234028
4444.215204
4400.838532
4450.840893
4411.560234
4455.016923
4383.492071
4431.062146
4430.226068
4418.569004
4390.048542
4415.630174
4425.483495
4428.318778
4461.147537
4505.111118
4450.692141
4427.435950
4356.909606
4442.009348
4462.082186
4439.833455
4414.476960
4449.519470
4421.914690
4429.385894
4415.170307
4432.908338
4431.515842
4417.047662
4428.561071
4434.150410
4435.430105
4428.704351
4400.161883
4446.041222
4415.577783
4444.129772
4377.554265
4360.451516
4494.632227
4423.716217
4486.294616
4466.913497
4459.892770
4426.272902
4436.611656
4424.923773
4403.996535
4392.895191
4407.556592
4382.939283
4443.673731
4444.016709
4402.897834
4442.964797
4443.234557
4459.614633
4432.921242
4409.900901
4428.686118
4446.935493
4438.977145
4400.473975
4410.586677
4418.324988
4438.251511
4433.578269
4438.154440
4465.252388
4447.609280
4427.719873
4419.428825
4452.063742
4471.903988
4382.358737
4384.776416
4469.576290
4466.940890
4421.325101
4415.694908
4457.034712
4433.500784
4417.620214
4428.175419
4452.069045
4462.680673
4436.007588
4419.752817
4425.562722
4418.431484
4436.383934
4425.814845
4412.331124
4427.594491
4427.062024
4427.762942
4428.522261
4428.670160
4429.218075
4429.334909
4429.802314
4429.957302
4430.392719
4430.443379
4430.715137
4430.662016
4429.973354
4417.017412
4425.843569
4425.910315
4427.022166
4427.807106
4428.156903
4428.909815
4429.012310
4429.608735
4429.528824
4430.027842
4430.134729
4430.381495
4430.438616
4430.829929
4420.651716
4425.799676
4425.535713
4426.444952
4427.565122
4427.542931
4428.433137
4428.352679
4429.145069
4429.091111
4429.816366
4429.373970
4429.574323
4429.960403
4429.378932
4422.326695
4426.319892
4426.009667
4426.817457
4427.451365
4427.716112
4428.435573
4428.466496
4428.985027
4428.831282
4429.130322
4429.012838
4429.593439
4428.447420
4429.544772
4424.184197
4426.620677
4426.442704
4426.661753
4427.395157
4427.383126
4428.057558
4427.925204
4428.659311
4428.441855
4429.245202
4428.441014
4429.310453
4427.648714
4429.222019
4424.776094
4426.993364
4426.844985
4426.836322
4427.772142
4427.368812
4428.403582
4427.936374
4428.819303
4428.103698
4428.888162
4428.254300
4428.900531
4427.486758
4428.687221
4425.363507
4427.288131
4426.915551
4427.056704
4427.409351
4427.359462
4427.887654
4427.723780
4428.220941
4428.316164
4428.596656
4428.416586
4428.359095
4427.656009
4428.925902
4425.789187
4427.570261
4427.099539
4427.271507
4427.601869
4427.695712
4427.892499
4428.101886
4428.273164
4428.138459
4428.406373
4428.238372
4428.624176
4427.433798
4427.987662
4425.893634
4427.650095
4427.164611
4427.261238
4427.494645
4427.255785
4427.870474
4427.476310
4428.112155
4427.974506
4428.765084
4428.198485
4429.145549
4428.308427
4428.439316
4426.309816
4427.782438
4427.309442
4427.376977
4427.652249
4427.627781
4427.855471
4427.829234
4428.164074
4427.995670
4428.213928
4428.666309
4429.051033
4428.689536
4431.179412
4426.131209
4427.825731
4427.256462
4427.361431
4427.398138
4427.325181
4427.519289
4427.497720
4427.675874
4427.850538
4428.508141
4428.198941
4429.561575
4429.409374
4430.292267
4426.316791
4427.963874
4427.213856
4427.491064
4427.561825
4427.467503
4427.746977
4427.461157
4427.969216
4427.592158
4427.968252
4428.066191
4428.906722
4429.207754
4430.535530
4426.398234
4427.791975
4427.385352
4427.297928
4427.296981
4427.270770
4427.220264
4427.351197
4427.266635
4427.503849
4427.642667
4427.760464
4428.260830
4428.430602
4430.245859
4439.657942
4437.595199
4407.795369
4445.046607
4448.813049
4451.490032
4437.343157
4465.517739
4421.413425
4436.778064
4393.026837
4465.882637
4423.996527
4450.717956
4429.344232
4411.222658
4426.410180
4427.872452
4427.308660
4427.332170
4427.532769
4427.233471
4427.519131
4427.229126
4427.412335
4427.094069
4427.182784
4426.942335
4427.138855
4427.295292
4427.946006
4428.225380
4458.787786
4438.183846
4410.559102
4433.982444
4435.582558
4418.275665
4440.931966
4469.690257
4420.511257
4419.518635
4448.666946
4442.279356
4454.366040
4405.812336
4405.653294
4426.151788
4427.719655
4427.353986
4427.121035
4427.338323
4426.810232
4427.345976
4426.469318
4427.257762
4426.341963
4427.224867
4426.234080
4426.882045
4425.609641
4427.376624
4420.408520
4448.733604
4400.518913
4382.833232
4404.002350
4441.617842
4407.537876
4426.470576
4445.804642
4463.106941
4435.063147
4406.576498
4395.652714
4458.866006
4395.692955
4440.537227
4426.258877
4427.717138
4427.404782
4427.020706
4427.531186
4426.952625
4427.249878
4426.887269
4427.013866
4426.415599
4426.687847
4425.610612
4426.168388
4423.327340
4426.961905
4433.239761
4426.507618
4439.966364
4369.115383
4393.339333
4454.185730
4472.299777
4457.153053
4399.244445
4405.567253
4429.618500
4437.100991
4397.114919
4428.712165
4442.404471
4413.730976
4425.936107
4427.773682
4427.098234
4427.207551
4427.060443
4426.693046
4427.035956
4426.295744
4426.665563
4426.220945
4426.147905
4424.995464
4425.513502
4422.666242
4421.794845
4440.727308
4451.992051
4446.236291
4447.446851
4485.913149
4429.398228
4428.764647
4465.364878
4443.545241
4422.580082
4430.562508
4466.278548
4384.128133
4367.229502
4426.664968
4409.290484
4425.905760
4427.845072
4427.070245
4427.166313
4427.079894
4427.060344
4426.837675
4426.740148
4426.813952
4425.795878
4426.164753
4425.055622
4424.485779
4422.378350
4420.447786
4420.584843
4396.903084
4413.955638
4426.742045
4484.222795
4368.472342
4460.664613
4430.170025
4447.748414
4435.222732
4409.805327
4450.839631
4406.695389
4454.854509
4426.137307
4424.111093
4426.042638
4427.662598
4427.136528
4427.050415
4427.005518
4426.639794
4426.766633
4426.588199
4426.002503
4426.731571
4425.123676
4425.590121
4424.424829
4423.687460
4422.896396
4444.920860
4433.222937
4407.138713
4384.272481
4366.134661
4440.387179
4428.343363
4468.692784
4437.933703
4436.698998
4469.851440
4453.031478
4440.768031
4455.772618
4482.513660
4408.000492
4425.829971
4427.853212
4426.919427
4427.279528
4426.832425
4427.120311
4426.781593
4426.617932
4426.828847
4425.727296
4426.541264
4425.448094
4425.669592
4425.305167
4424.896979
4443.703865
4406.013420
4423.403842
4414.030646
4386.567796
4491.450402
4578.784247
4398.771977
4468.030249
4453.643416
4429.359192
4475.147668
4434.325466
4447.092385
4387.600215
4416.584336
4425.713075
4427.632425
4427.080981
4426.862101
4427.188109
4426.540462
4427.018462
4426.408634
4426.669537
4426.227977
4426.373583
4425.986775
4426.695907
4426.356759
4427.825714
4424.619906
4442.037277
4397.447717
4454.199835
4376.039982
4434.287548
4432.652528
4496.138549
4452.406594
4482.555038
4408.220808
4369.418237
4414.991027
4433.533678
4390.109851
4419.405466
4425.795797
4427.573933
4427.258096
4426.905588
4427.343840
4426.728682
4427.198942
4426.565547
4426.668212
4426.338744
4426.532088
4426.039227
4427.231354
4426.068437
4427.702728
4440.131221
4432.749033
4445.325867
4477.163288
4351.960560
4347.648503
4456.633708
4475.929931
4458.494070
4500.514211
4403.237450
4446.064840
4385.829215
4442.112085
4420.256664
4436.951931
4425.701367
4427.768818
4426.975509
4427.258538
4426.873261
4426.995551
4426.797101
4426.402312
4426.933936
4425.801353
4426.769629
4426.289865
4426.346741
4426.128063
4425.697945
4432.007215
4421.187042
4418.544644
4428.406776
4425.592349
4508.652424
4488.706488
4477.390368
4455.166587
4456.242695
4415.955542
4487.329309
4461.045164
4454.422904
4371.029309
4401.711875
4425.830953
4427.782393
4427.071002
4427.079396
4427.273396
4426.743023
4427.066066
4426.696069
4426.321223
4426.763049
4426.525481
4426.075955
4426.662125
4425.659515
4425.477295
4444.942535
4441.146211
4428.757684
4462.342584
4444.117081
4462.170149
4452.711624
4472.563108
4461.148957
4476.569023
4472.123972
4437.798618
4393.284163
4393.307613
4276.123691
4440.171158
4425.848879
4427.609279
4427.405049
4427.001923
4427.165086
4426.855727
4426.849570
4426.463653
4426.985233
4426.229099
4426.578527
4426.404317
4426.352231
4426.128346
4426.824743
4418.286022
4411.646873
4447.031789
4451.869088
4429.635507
4461.368629
4454.224514
4447.296035
4466.390386
4449.046241
4452.612032
4475.356516
4412.705275
4398.761204
4511.693194
4442.866823
4425.714218
4427.987496
4427.052446
4427.423491
4427.147438
4426.967079
4427.299412
4426.683657
4426.968842
4426.299747
4426.799126
4425.601542
4426.543148
4425.228950
4426.156711
4439.494629
4434.365839
4421.315265
4433.888899
4393.324629
4441.615673
4438.099796
4453.542162
4462.621070
4447.451212
4474.663537
4460.200733
4431.944215
4416.671373
4414.594612
4426.704432
4425.791506
4428.121933
4427.125323
4427.340182
4427.311124
4427.211081
4426.953526
4426.979731
4426.617438
4426.494019
4425.935571
4426.061648
4425.941010
4425.614123
4425.813232
4427.729550
4431.193489
4416.663660
4424.738277
4410.630462
4457.319290
4453.507526
4437.333368
4469.978318
4411.485551
4435.074129
4459.715519
4441.347236
4441.530877
4357.758016
4424.683266
4425.886770
4428.169475
4427.218938
4428.029542
4426.965626
4427.739240
4426.926303
4427.162438
4426.633888
4426.359655
4426.492630
4425.711334
4425.960342
4426.015123
4426.851648
4432.520203
4427.807435
4408.963557
4436.666559
4428.244863
4422.095703
4441.718520
4461.269368
4429.484874
4475.921923
4419.610338
4459.548141
4436.629746
4418.695459
4436.399099
4423.229839
4426.162050
4428.434422
4427.341648
4427.771382
4427.512743
4427.538264
4427.193511
4427.275495
4426.665180
4427.018770
4425.831234
4426.470764
4425.658293
4424.920128
4426.460450
4414.346576
4420.047744
4418.876652
4417.021864
4438.212337
4409.734845
4413.384473
4430.302702
4416.136490
4432.097415
4458.484028
4458.378645
4416.248248
4450.972666
4402.254390
4392.157860
4426.294176
4428.274944
4427.821991
4427.863454
4427.858282
4427.566437
4427.601262
4427.212941
4427.084377
4426.403287
4426.447490
4425.795057
4424.721884
4424.805577
4424.910529
4425.657052
4425.762283
4423.010181
4409.352538
4397.981333
4404.492059
4423.016563
4455.486269
4418.584334
4460.454125
4418.596005
4416.622490
4416.288834
4464.785889
4442.698613
4445.501990
4426.721962
4428.470715
4427.981634
4428.188340
4427.760741
4427.905619
4427.558436
4427.278554
4427.114659
4426.640440
4426.595990
4425.587311
4426.335363
4424.038351
4423.964738
4402.459671
4415.361494
4410.908739
4430.320037
4431.459397
4429.143480
4425.987345
4435.047966
4452.234472
4432.568552
4422.623333
4438.772459
4439.981377
4430.983324
4454.420063
4464.299508
4426.879327
4428.847453
4428.068113
4428.337270
4428.191538
4428.037954
4427.822593
4427.830646
4427.300630
4427.369395
4426.272638
4426.951895
4424.595180
4424.028618
4427.710960
4431.812551
4403.706472
4413.437444
4430.624308
4417.686145
4442.037803
4415.762046
4435.387487
4456.323340
4406.457123
4460.476191
4452.943224
4430.438395
4444.873016
4437.474907
4459.528986
4427.271492
4428.895771
4428.403569
4428.574049
4428.362338
4428.332523
4428.316168
4428.020569
4427.892006
4427.354240
4427.612939
4425.730675
4426.683069
4426.342547
4424.149315
4426.730247
4416.969625
4430.011881
4434.747109
4418.960270
4429.696438
4422.758110
4438.552345
4431.565871
4447.043126
4444.979595
4472.344277
4461.936597
4466.013953
4457.694302
4459.280029
4427.815684
4429.180788
4428.712532
4429.003154
4428.660151
4428.869983
4428.474609
4428.357868
4428.235143
4427.805980
4426.966275
4427.455452
4426.399622
4425.237399
4428.054094
4428.052074
4420.872221
4418.654243
4410.465118
4446.293382
4438.154205
4426.659817
4447.948971
4405.802691
4460.285039
4469.084238
4456.220923
4422.879665
4459.623419
4465.923499
4454.700230
4428.348622
4429.536018
4428.921807
4429.318783
4428.927218
4429.170648
4428.668980
4429.177242
4428.045543
4428.859771
4427.816235
4427.460384
4426.691198
4426.514872
4428.012158
4431.944679
4404.773184
4430.515320
4434.060414
4418.332868
4429.561488
4430.247290
4437.470373
4433.154617
4419.005363
4447.786944
4457.761656
4447.731181
4454.088643
4464.079676
4459.004488