# vtk DataFile Version 2.0
mfree iwf
ASCII

DATASET UNSTRUCTURED_GRID
POINTS 11499 float
-0.000000 0.000445 0.000000
0.000000 0.000450 0.000000
-0.000000 0.000455 0.000000
-0.000000 0.000460 0.000000
-0.000000 0.000465 0.000000
-0.000000 0.000470 0.000000
0.000000 0.000475 0.000000
-0.000000 0.000480 0.000000
0.000000 0.000485 0.000000
0.000000 0.000490 0.000000
-0.000000 0.000496 0.000000
0.000002 0.000500 0.000000
0.001049 0.000989 0.000000
0.001058 0.000988 0.000000
0.001104 0.000974 0.000000
0.001108 0.000972 0.000000
0.001108 0.000972 0.000000
0.001115 0.000969 0.000000
0.001121 0.000966 0.000000
0.001117 0.000968 0.000000
0.001131 0.000963 0.000000
0.001155 0.000952 0.000000
0.001161 0.000947 0.000000
0.001164 0.000944 0.000000
0.001167 0.000941 0.000000
0.001171 0.000937 0.000000
0.001174 0.000934 0.000000
0.001178 0.000930 0.000000
0.001180 0.000927 0.000000
0.001185 0.000922 0.000000
0.001189 0.000918 0.000000
0.001209 0.000906 0.000000
0.000005 0.000445 0.000000
0.000005 0.000450 0.000000
0.000005 0.000455 0.000000
0.000005 0.000460 0.000000
0.000005 0.000465 0.000000
0.000005 0.000470 0.000000
0.000005 0.000475 0.000000
0.000005 0.000480 0.000000
0.000005 0.000485 0.000000
0.000006 0.000490 0.000000
0.000003 0.000496 0.000000
0.000006 0.000499 0.000000
0.001098 0.000975 0.000000
0.001103 0.000966 0.000000
0.001136 0.000958 0.000000
0.001142 0.000956 0.000000
0.001147 0.000953 0.000000
0.001150 0.000951 0.000000
0.001152 0.000949 0.000000
0.001155 0.000945 0.000000
0.001158 0.000942 0.000000
0.001163 0.000938 0.000000
0.001169 0.000933 0.000000
0.001172 0.000929 0.000000
0.001176 0.000923 0.000000
0.001183 0.000918 0.000000
0.001186 0.000914 0.000000
0.001190 0.000911 0.000000
0.001201 0.000907 0.000000
0.001203 0.000906 0.000000
0.001198 0.000909 0.000000
0.001206 0.000904 0.000000
0.000010 0.000445 0.000000
0.000010 0.000450 0.000000
0.000010 0.000456 0.000000
0.000010 0.000460 0.000000
0.000010 0.000465 0.000000
0.000010 0.000469 0.000000
0.000009 0.000475 0.000000
0.000011 0.000480 0.000000
0.000009 0.000486 0.000000
0.000012 0.000489 0.000000
0.000008 0.000497 0.000000
0.000011 0.000498 0.000000
0.001098 0.000971 0.000000
0.001106 0.000964 0.000000
0.001122 0.000961 0.000000
0.001129 0.000959 0.000000
0.001134 0.000958 0.000000
0.001139 0.000956 0.000000
0.001129 0.000953 0.000000
0.001137 0.000949 0.000000
0.001143 0.000948 0.000000
0.001149 0.000944 0.000000
0.001157 0.000938 0.000000
0.001162 0.000934 0.000000
0.001162 0.000928 0.000000
0.001167 0.000925 0.000000
0.001171 0.000925 0.000000
0.001180 0.000919 0.000000
0.001193 0.000909 0.000000
0.001195 0.000908 0.000000
0.001200 0.000901 0.000000
0.001201 0.000896 0.000000
0.000014 0.000445 0.000000
0.000016 0.000450 0.000000
0.000014 0.000455 0.000000
0.000018 0.000460 0.000000
0.000015 0.000470 0.000000
0.000015 0.000464 0.000000
0.000014 0.000476 0.000000
0.000017 0.000480 0.000000
0.000014 0.000485 0.000000
0.000016 0.000489 0.000000
0.000014 0.000495 0.000000
0.000016 0.000498 0.000000
0.000025 0.000500 0.000000
0.001110 0.000965 0.000000
0.001124 0.000960 0.000000
0.001120 0.000956 0.000000
0.001133 0.000951 0.000000
0.001143 0.000953 0.000000
0.001144 0.000943 0.000000
0.001152 0.000940 0.000000
0.001147 0.000937 0.000000
0.001154 0.000936 0.000000
0.001162 0.000923 0.000000
0.001165 0.000932 0.000000
0.001171 0.000918 0.000000
0.001176 0.000919 0.000000
0.001176 0.000914 0.000000
0.001181 0.000913 0.000000
0.001185 0.000907 0.000000
0.001189 0.000905 0.000000
0.001192 0.000901 0.000000
0.001200 0.000894 0.000000
0.000019 0.000445 0.000000
0.000021 0.000450 0.000000
0.000018 0.000455 0.000000
0.000022 0.000458 0.000000
0.000018 0.000467 0.000000
0.000025 0.000468 0.000000
0.000018 0.000475 0.000000
0.000022 0.000479 0.000000
0.000019 0.000486 0.000000
0.000021 0.000491 0.000000
0.000020 0.000497 0.000000
0.000022 0.000499 0.000000
0.000039 0.000500 0.000000
0.001106 0.000953 0.000000
0.001113 0.000958 0.000000
0.001120 0.000951 0.000000
0.001126 0.000956 0.000000
0.001136 0.000945 0.000000
0.001135 0.000941 0.000000
0.001149 0.000934 0.000000
0.001139 0.000939 0.000000
0.001151 0.000930 0.000000
0.001152 0.000921 0.000000
0.001156 0.000916 0.000000
0.001162 0.000916 0.000000
0.001171 0.000912 0.000000
0.001176 0.000904 0.000000
0.001182 0.000904 0.000000
0.001185 0.000901 0.000000
0.001193 0.000896 0.000000
0.001196 0.000898 0.000000
0.001196 0.000890 0.000000
0.000024 0.000445 0.000000
0.000026 0.000450 0.000000
0.000025 0.000456 0.000000
0.000025 0.000461 0.000000
0.000021 0.000466 0.000000
0.000025 0.000473 0.000000
0.000023 0.000476 0.000000
0.000027 0.000481 0.000000
0.000023 0.000485 0.000000
0.000026 0.000488 0.000000
0.000026 0.000493 0.000000
0.000027 0.000500 0.000000
0.001079 0.000983 0.000000
0.001112 0.000962 0.000000
0.001117 0.000961 0.000000
0.001131 0.000947 0.000000
0.001123 0.000945 0.000000
0.001143 0.000942 0.000000
0.001142 0.000934 0.000000
0.001132 0.000940 0.000000
0.001139 0.000930 0.000000
0.001157 0.000932 0.000000
0.001155 0.000924 0.000000
0.001157 0.000928 0.000000
0.001167 0.000921 0.000000
0.001168 0.000915 0.000000
0.001180 0.000908 0.000000
0.001175 0.000908 0.000000
0.001188 0.000897 0.000000
0.001181 0.000898 0.000000
0.001190 0.000893 0.000000
0.001192 0.000886 0.000000
0.000030 0.000445 0.000000
0.000030 0.000450 0.000000
0.000029 0.000455 0.000000
0.000030 0.000460 0.000000
0.000032 0.000464 0.000000
0.000027 0.000468 0.000000
0.000031 0.000472 0.000000
0.000031 0.000477 0.000000
0.000030 0.000486 0.000000
0.000031 0.000492 0.000000
0.000033 0.000497 0.000000
0.000030 0.000499 0.000000
0.000048 0.000500 0.000000
0.001102 0.000960 0.000000
0.001115 0.000949 0.000000
0.001125 0.000950 0.000000
0.001121 0.000946 0.000000
0.001128 0.000943 0.000000
0.001134 0.000932 0.000000
0.001146 0.000922 0.000000
0.001145 0.000930 0.000000
0.001149 0.000925 0.000000
0.001159 0.000920 0.000000
0.001161 0.000907 0.000000
0.001164 0.000912 0.000000
0.001167 0.000908 0.000000
0.001172 0.000899 0.000000
0.001171 0.000905 0.000000
0.001178 0.000894 0.000000
0.001184 0.000894 0.000000
0.001188 0.000889 0.000000
0.001190 0.000883 0.000000
0.000035 0.000445 0.000000
0.000035 0.000450 0.000000
0.000034 0.000456 0.000000
0.000038 0.000454 0.000000
0.000035 0.000468 0.000000
0.000036 0.000472 0.000000
0.000031 0.000478 0.000000
0.000041 0.000478 0.000000
0.000034 0.000483 0.000000
0.000034 0.000488 0.000000
0.000037 0.000491 0.000000
0.000036 0.000498 0.000000
0.001036 0.000988 0.000000
0.001074 0.000984 0.000000
0.001110 0.000952 0.000000
0.001115 0.000944 0.000000
0.001128 0.000936 0.000000
0.001121 0.000934 0.000000
0.001137 0.000935 0.000000
0.001134 0.000927 0.000000
0.001143 0.000927 0.000000
0.001135 0.000919 0.000000
0.001143 0.000912 0.000000
0.001156 0.000908 0.000000
0.001158 0.000912 0.000000
0.001163 0.000903 0.000000
0.001176 0.000898 0.000000
0.001167 0.000887 0.000000
0.001179 0.000889 0.000000
0.001182 0.000888 0.000000
0.001185 0.000885 0.000000
0.001186 0.000879 0.000000
0.000040 0.000445 0.000000
0.000041 0.000450 0.000000
0.000036 0.000461 0.000000
0.000040 0.000459 0.000000
0.000042 0.000463 0.000000
0.000039 0.000467 0.000000
0.000042 0.000472 0.000000
0.000037 0.000478 0.000000
0.000041 0.000487 0.000000
0.000042 0.000491 0.000000
0.000041 0.000497 0.000000
0.000044 0.000498 0.000000
0.000889 0.000935 0.000000
0.001099 0.000967 0.000000
0.001102 0.000956 0.000000
0.001111 0.000939 0.000000
0.001125 0.000939 0.000000
0.001129 0.000930 0.000000
0.001124 0.000934 0.000000
0.001140 0.000923 0.000000
0.001146 0.000916 0.000000
0.001151 0.000917 0.000000
0.001143 0.000919 0.000000
0.001149 0.000904 0.000000
0.001157 0.000902 0.000000
0.001162 0.000898 0.000000
0.001167 0.000902 0.000000
0.001167 0.000896 0.000000
0.001172 0.000894 0.000000
0.001175 0.000885 0.000000
0.001181 0.000882 0.000000
0.001183 0.000876 0.000000
0.000044 0.000445 0.000000
0.000046 0.000450 0.000000
0.000044 0.000454 0.000000
0.000046 0.000460 0.000000
0.000044 0.000468 0.000000
0.000046 0.000474 0.000000
0.000046 0.000478 0.000000
0.000040 0.000483 0.000000
0.000052 0.000485 0.000000
0.000045 0.000483 0.000000
0.000048 0.000493 0.000000
0.000050 0.000498 0.000000
0.000895 0.000940 0.000000
0.001094 0.000976 0.000000
0.001116 0.000954 0.000000
0.001119 0.000940 0.000000
0.001116 0.000937 0.000000
0.001129 0.000926 0.000000
0.001130 0.000922 0.000000
0.001136 0.000922 0.000000
0.001137 0.000911 0.000000
0.001148 0.000910 0.000000
0.001153 0.000913 0.000000
0.001158 0.000898 0.000000
0.001152 0.000900 0.000000
0.001159 0.000894 0.000000
0.001167 0.000892 0.000000
0.001172 0.000889 0.000000
0.001170 0.000884 0.000000
0.001175 0.000882 0.000000
0.001178 0.000879 0.000000
0.001179 0.000872 0.000000
0.000049 0.000445 0.000000
0.000052 0.000450 0.000000
0.000049 0.000455 0.000000
0.000053 0.000454 0.000000
0.000047 0.000464 0.000000
0.000049 0.000471 0.000000
0.000053 0.000468 0.000000
0.000051 0.000477 0.000000
0.000047 0.000488 0.000000
0.000052 0.000491 0.000000
0.000057 0.000492 0.000000
0.000053 0.000498 0.000000
0.000980 0.000981 0.000000
0.001085 0.000973 0.000000
0.001097 0.000963 0.000000
0.001110 0.000943 0.000000
0.001116 0.000931 0.000000
0.001124 0.000928 0.000000
0.001118 0.000924 0.000000
0.001125 0.000923 0.000000
0.001132 0.000913 0.000000
0.001138 0.000916 0.000000
0.001136 0.000909 0.000000
0.001145 0.000905 0.000000
0.001149 0.000895 0.000000
0.001153 0.000906 0.000000
0.001158 0.000889 0.000000
0.001161 0.000883 0.000000
0.001163 0.000890 0.000000
0.001171 0.000878 0.000000
0.001174 0.000874 0.000000
0.001176 0.000869 0.000000
0.000054 0.000445 0.000000
0.000058 0.000450 0.000000
0.000053 0.000458 0.000000
0.000051 0.000463 0.000000
0.000060 0.000466 0.000000
0.000053 0.000473 0.000000
0.000057 0.000476 0.000000
0.000057 0.000481 0.000000
0.000052 0.000483 0.000000
0.000056 0.000486 0.000000
0.000056 0.000497 0.000000
0.000059 0.000496 0.000000
0.001002 0.000984 0.000000
0.001093 0.000977 0.000000
[...]
POINT_DATA 11499
SCALARS density float 1
LOOKUP_TABLE default
4429.257334
4436.589518
4428.374527
4417.071209
4424.712470
4425.095387
4429.356972
4435.250627
4429.920193
4421.385886
4433.383494
4401.275463
4428.645606
4419.713814
4418.682065
4442.945842
4444.296136
4442.110089
4446.441162
4453.839933
4425.638055
4425.651417
4396.235280
4430.633646
4425.743855
4420.864301
4453.533247
4422.246934
4413.670441
4447.911607
4421.410769
4400.621396
4432.577560
4420.419461
4413.637010
4442.113439
4452.649974
4427.201235
4427.433164
4423.537806
4412.716118
4428.240209
4455.386056
4407.176421
4412.512120
4402.731351
4416.759020
4410.144436
4425.418500
4428.848487
4444.511268
4463.109197
4451.033492
4428.675493
4405.767826
4400.720479
4438.138816
4397.114304
4432.337947
4459.430575
4422.087658
4431.856157
4405.979528
4401.997762
4419.459600
4430.831242
4460.927573
4418.628521
4393.425858
4409.603068
4449.105107
4380.441732
4477.399941
4369.813504
4451.290614
4400.164528
4459.691317
4469.608373
4431.476555
4397.627030
4419.410983
4413.654752
4458.420043
4445.158654
4413.100194
4385.298221
4411.544131
4441.826054
4396.305344
4447.467166
4438.623151
4398.518642
4419.699464
4427.586189
4452.486453
4409.833084
4421.095758
4435.727467
4429.446059
4417.057881
4424.726070
4467.800881
4476.678336
4382.041633
4481.898373
4382.611770
4518.041365
4398.019909
4436.138582
4370.496222
4421.737148
4445.168313
4475.585880
4451.678831
4449.388603
4381.848232
4428.984550
4439.364741
4438.559721
4446.927524
4398.283014
4474.583828
4427.181873
4469.267434
4441.380920
4364.326043
4498.563863
4442.858339
4444.913022
4434.071141
4428.284643
4452.201853
4440.375327
4448.174679
4405.879669
4461.181572
4472.074709
4375.936227
4465.636044
4434.019909
4416.462144
4408.524974
4477.390685
4415.256918
4473.851304
4389.156299
4464.821340
4448.072579
4402.208174
4391.400551
4415.028191
4420.601343
4424.324693
4431.108100
4418.909241
4461.778295
4458.790049
4379.466721
4400.811487
4420.483723
4431.456016
4444.776072
4429.556546
4403.280609
4406.345333
4411.116794
4475.704549
4357.575910
4425.648908
4478.015944
4413.136969
4425.435559
4437.824662
4405.394109
4393.133243
4394.142442
4449.553133
4463.109906
4410.178477
4426.424446
4457.284155
4440.872625
4447.433427
4448.494854
4439.909444
4455.695963
4390.282865
4437.042419
4411.499222
4415.558704
4494.093147
4412.992185
4420.573991
4434.261519
4414.645019
4448.787619
4404.833521
4471.842238
4380.519921
4461.707262
4452.229226
4408.378852
4458.484632
4419.429581
4426.216383
4439.616309
4457.848699
4391.248549
4442.656554
4468.542522
4424.324729
4422.401630
4436.771785
4449.951599
4419.646169
4438.271457
4440.533278
4389.046728
4407.408303
4454.289182
4425.288411
4387.888855
4401.356745
4444.389714
4431.739752
4415.385917
4455.154759
4423.846979
4447.296072
4434.878582
4453.843215
4431.975077
4394.178689
4431.387074
4415.733849
4445.547664
4412.928390
4421.703367
4405.075112
4407.148956
4424.844209
4446.277454
4451.276733
4403.979948
4434.421344
4456.922605
4400.517933
4454.827424
4415.829480
4451.770988
4448.598842
4434.349893
4441.236513
4467.126869
4408.871764
4418.305032
4430.947307
4427.781695
4408.093114
4439.425966
4427.626698
4441.608421
4419.387358
4424.371673
4454.392594
4424.386346
4433.668474
4428.186658
4427.020202
4466.088317
4404.687751
4433.235931
4417.520892
4438.165689
4452.293009
4429.009664
4443.221113
4435.818809
4420.031479
4433.016245
4413.053812
4426.783722
4441.768231
4409.614733
4428.291358
4410.631213
4412.721348
4437.112387
4427.142447
4420.740374
4426.652734
4429.423646
4400.988075
4449.219597
4432.790656
4434.874209
4462.482985
4408.621714
4467.304274
4429.989386
4434.217616
4438.301231
4398.480436
4415.109192
4434.031408
4456.902773
4424.609948
4444.886891
4450.945549
4430.163623
4433.482705
4437.955883
4436.743961
4448.522532
4463.370360
4425.731122
4427.392410
4455.204432
4426.449061
4428.126626
4428.259999
4427.272228
4438.761094
4423.917886
4446.387305
4444.794250
4424.719405
4377.980026
4394.661547
4427.482490
4538.073027
4402.973812
4438.333324
4430.817127
4398.626387
4446.465896
4429.242467
4384.353472
4460.899448
4432.162977
4391.458276
4430.267999
4441.856588
4434.219603
4424.805675
4423.738571
4450.560605
4444.259482
4390.141511
4414.315096
4422.085183
4429.588393
4448.706140
4413.139151
4448.108797
4392.449655
4435.943894
4447.182828
4430.686163
4450.744704
4476.651095
4349.104206
4403.749687
4402.405996
4427.160304
4433.016289
4422.545373
4413.108620
4442.293865
4435.869866
4395.454040
4432.186288
4437.003801
4380.185623
4437.054591
4396.533433
4417.874857
4430.473582
4452.727683
4425.839187
4435.076064
4431.773000
4437.926006
4422.748448
4417.041131
4424.592413
4411.758512
4384.998549
4430.631194
4439.285825
4421.067644
4435.435534
4458.756192
4407.059038
4448.518237
4442.467202
4412.587422
4426.604587
4438.188966
4389.334126
4396.674237
4417.168053
4440.670062
4423.862009
4462.714061
4430.903477
4441.923209
4416.839169
4397.093184
4437.086819
4435.933208
4420.105439
4409.389230
4436.824390
4433.143000
4433.568794
4436.238822
4435.000707
4455.051990
4419.050825
4444.002512
4437.564788
4402.092470
4395.187624
4433.337572
4377.660122
4433.849438
4452.527777
4415.772953
4437.173243
4408.201874
4391.361458
4445.019902
4373.751538
4441.371069
4406.542752
4445.034298
4441.968570
4460.755983
4439.393897
4415.910992
4458.402013
4423.652075
4439.096580
4421.056245
4442.979162
4416.874868
4435.790711
4413.584803
4418.102484
4466.186342
4456.529605
4446.204258
4449.899355
4443.283191
4429.691051
4387.689997
4442.767832
4446.366339
4455.524424
4424.915008
4439.928473
4432.998009
4456.927155
4449.314172
4465.136932
4459.249461
4444.810391
4388.856514
4413.043827
4428.116473
4446.041457
4443.089977
4425.324712
4438.074103
4410.202279
4418.482754
4407.968601
4430.796483
4431.134210
4441.351848
4398.906768
4403.133900
4381.087000
4434.432991
4392.358913
4465.692619
4435.832200
4441.942911
4389.804699
4382.291626
4458.016693
4436.807044
4419.878077
4428.925575
4443.352706
4443.012079
4414.737880
4408.865034
4410.867156
4394.360989
4414.492340
4422.578223
4450.597953
4386.362823
4447.749995
4407.157023
4443.707481
4440.026079
4420.149522
4439.652758
4423.349302
4424.879321
4431.609664
4434.526199
4435.595700
4411.708445
4406.373766
4400.630235
4427.491325
4436.489783
4376.042176
4396.547806
4432.793782
4428.569963
4420.305361
4430.670435
4436.218908
4486.262918
4444.895171
4424.951441
4448.222922
4407.333713
4461.577118
4446.307329
4426.645891
4423.018317
4411.047203
4413.510386
4440.797912
4409.214354
4444.644418
4424.185730
4443.299240
4441.847815
4432.018605
4447.033046
4416.693856
4443.669981
4444.635561
4435.154464
4453.406409
4392.630353
4506.664182
4434.825921
4475.863751
4432.326287
4431.074813
4440.720956
4436.052006
4462.080396
4429.320355
4485.409321
4499.966991
4435.981776
4426.563857
4417.023604
4447.321399
4427.261081
4444.050006
4400.939739
4430.398219
4436.347310
4445.459205
4419.852420
4430.703004
4421.427242
4425.748547
4423.838157
4440.844174
4445.730452
4434.765192
4434.655479
4420.853633
4457.187478
4441.234685
4383.445560
4422.409537
4414.524762
4410.848202
4434.710828
4442.536261
4424.906579
4432.442689
4436.222632
4437.467505
4441.340668
4452.049101
4431.605515
4416.513127
4419.795379
4421.897022
4442.602246
4453.015001
4424.891851
4412.334576
4423.780543
4434.042185
4460.507098
4415.617770
4428.290032
4453.548030
4409.692160
4427.457526
4445.914172
4449.231126
4428.461281
4423.581664
4427.461720
4436.299118
4419.214462
4444.726498
4440.916089
4472.716677
4433.328575
4441.590661
4430.830707
4449.855455
4490.922079
4431.254186
4454.163600
4431.111979
4406.220831
4414.537935
4441.198272
4412.508329
4423.675620
4451.241135
4433.059889
4431.877988
4428.830920
4430.843022
4447.620295
4406.488263
4416.298624
4453.112464
4402.781207
4395.756189
4451.476465
4468.992952
4385.838800
4503.204747
4424.996586
4429.688314
4412.683592
4477.833157
4437.964507
4420.747994
4357.230104
4439.339308
4385.165557
4449.030905
4481.746205
4439.538178
4463.873245
4447.997263
4410.469890
4444.429741
4451.312642
4414.371723
4416.061954
4427.412737
4435.955177
4424.307074
4428.532638
4431.290744
4462.618710
4440.300514
4463.222182
4438.892815
4469.649880
4356.887809
4431.207820
4437.286723
4434.733006
4423.560838
4429.709133
4455.591846
4455.557656
4401.072533
4444.240913
4408.485915
4389.920214
4351.615084
4461.145056
4388.040042
4424.897912
4414.726269
4446.945979
4403.502337
4449.813339
4421.744061
4451.454297
4431.406233
4416.393622
4435.931211
4395.517443
4412.098771
4418.210960
4400.770364
4435.921273
4421.585954
4463.272949
4405.634654
4415.900886
4451.986191
4437.316747
4464.762266
4384.311070
4440.446108
4437.540904
4444.944793
4432.520707
4461.246188
4446.933304
4370.335366
4357.241247
4454.722422
4390.306306
4389.146673
4424.664391
4446.262850
4443.738080
4426.588563
4410.959298
4418.767344
4427.873908
4426.732616
4447.794157
4418.045489
4423.781503
4440.924547
4421.285463
4428.914069
4454.644262
4443.421302
4430.376748
4429.486317
4466.042217
4420.209180
4438.446362
4382.183573
4358.019271
4426.111297
4398.759473
4409.945764
4374.868002
4444.654869
4440.850437
4460.724122
4439.150685
4461.737658
4404.913454
4438.844604
4451.865698
4403.225310
4453.967634
4424.892176
4427.820335
4430.386353
4430.531555
4430.606960
4430.419586
4429.900356
4429.563243
4429.155698
4429.407941
4430.090946
4431.124276
4431.613323
4431.457317
4430.559174
4429.921466
4428.554089
4429.805300
4428.723598
4428.849025
4429.664770
4430.762406
4432.192008
4433.251140
4433.410812
4431.888006
4429.860275
4428.535048
4428.600420
4430.431776
4431.664733
4429.113804
4430.082414
4431.118227
4431.403975
4430.895237
4429.561180
4428.359970
4426.840210
4427.011995
4428.526040
4431.251669
4432.700237
4431.987464
4430.829905
4427.714351
4429.424313
4429.585714
4428.354786
4428.307341
4428.946101
4430.455353
4431.837604
4433.742353
4433.509425
4432.065014
4428.973088
4427.194791
4426.838869
4428.513711
4429.979919
4429.652075
4429.913418
4431.147572
4431.486222
4430.710238
4429.547200
4427.894749
4426.198710
4426.209228
4427.712675
4430.724727
4432.177159
4432.485241
4428.946549
4429.799956
4429.502669
4429.417975
4428.398122
4427.724260
4429.112230
4429.702936
4432.025065
4432.959353
4433.824517
4431.054921
4429.170775
4426.039586
4427.189317
4428.028443
4428.715150
4429.723022
4429.649122
4431.325574
4431.217876
4430.681926
4429.244108
4427.723484
4425.818307
4425.873152
4427.361831
4430.147552
4432.194509
4430.657307
4428.445256
4427.614427
4429.344085
4429.301005
4428.315516
4427.633237
4428.734949
4429.748029
4431.477868
4433.015281
4433.313359
4431.125998
4428.630272
4425.778008
4427.196163
4426.643632
4428.313966
4429.062471
4429.839184
4430.838884
4431.136505
4430.718124
4428.767245
4427.868453
4425.295892
4425.982360
4426.736264
4430.476460
4431.861902
4432.163422
4429.361621
4430.758913
4429.172688
4429.268925
4428.093875
4427.616600
4428.369134
4429.791873
4430.970573
4432.977046
4432.938376
4431.078797
4428.447911
4425.874919
4427.668037
4428.940429
4428.913389
4429.159793
4429.800830
4430.678978
4431.304930
4430.100804
4429.099773
4426.979876
4425.812024
4425.290714
4427.055836
4429.584643
4432.561461
4430.115147
4429.691279
4426.651308
4429.025772
4429.289330
4427.832594
4427.436319
4428.166801
4429.463835
4430.857607
4432.714140
4432.869228
4431.018082
4428.103031
4425.781150
4426.702705
4427.399122
4427.572492
4428.928574
4429.509304
4430.706297
4431.046051
4430.046199
4428.760164
4427.116586
4425.428624
4425.636171
4426.433094
4429.945285
4432.079632
4431.919849
4428.786400
4431.035844
4444.088609
4432.662879
4440.464586
4431.463918
4416.161199
4452.595211
4432.267684
4416.291211
4405.783353
4461.822610
4462.235580
4394.503545
4425.450380
4453.482353
4426.459153
4425.003274
4428.767716
4429.056322
4427.924125
4426.786602
4428.367726
4428.932838
4430.844490
4432.457406
4432.614752
4430.782360
4428.276628
4425.380378
4427.768654
4429.138623
4430.406578
4438.439075
4410.851435
4418.334855
4426.477173
4405.579674
4445.504003
4433.996037
4420.546662
4391.109020
4402.064011
4414.599324
4429.529475
4432.477825
4391.297435
4413.900750
4409.561295
4428.549017
4429.392518
4430.493798
4430.954968
4429.871138
4428.491110
4427.198993
4425.073911
4425.912004
4425.970395
4429.458941
4432.266732
4430.977287
4429.648542
4429.475472
4444.654528
4426.269195
4422.032502
4446.875512
4414.003642
4447.515841
4417.281632
4426.088654
4401.657682
4435.930456
4443.250816
4433.097142
4434.694063
4441.160641
4445.672012
4426.121177
4428.578837
4429.129212
4427.501984
4426.954865
4427.652710
4429.359247
4429.945435
4432.856174
4431.494929
4431.130010
4427.684023
4424.817218
4426.978684
4426.702283
4429.975160
4438.019689
4431.945295
4410.539885
4394.130363
4398.378289
4450.453415
4434.952205
4423.855979
4431.984766
4457.439065
4442.062064
4435.474538
4369.032008
4389.708750
4445.742649
4452.404191
4428.273959
4429.494749
4430.129362
4430.914827
4429.806205
4428.337303
4427.012061
4425.125798
4425.629893
4425.659633
4428.678705
4432.106859
4429.888383
4427.870039
4427.644068
4458.064099
4420.037164
4435.426700
4458.785189
4437.412942
4433.322490
4439.359125
4460.400836
4418.768774
4439.414339
4383.225745
4449.208099
4411.207261
4425.235385
4432.151671
4421.234730
4428.163150
4429.011695
4427.335067
4426.915475
4427.330283
4429.412298
4429.678390
4432.510782
4431.432201
4430.590869
4427.627811
4424.431599
4426.010917
4427.687445
4425.061932
4433.936370
4422.565466
4413.492661
4406.992038
4466.890608
4388.454171
4429.007731
4437.479097
4447.556296
4405.102333
4400.140500
4409.130596
4425.978789
4416.534695
4448.075806
4417.986247
4428.368878
4429.477121
4429.962326
4431.042216
4429.476446
4428.585230
4426.401171
4425.680366
4425.224485
4425.760408
4427.972657
4432.138794
4428.561749
4427.994841
4427.142305
4426.970985
4450.114383
4447.961127
4405.386279
4375.797563
4443.887079
4431.794875
4430.611634
4411.541997
4439.843746
4434.245659
4464.330627
4446.541327
4414.658400
4483.906424
4411.098977
4427.982408
4428.871532
4427.275724
4426.582862
4427.248422
4428.974280
4429.587323
4432.312366
4431.283476
4430.694019
4427.402709
4424.425133
4426.774001
4426.035781
4425.466462
4409.273182
4442.245635
4420.471438
4424.217856
4417.080282
4473.687597
4422.087377
4425.188217
4428.754550
4417.885514
4442.835191
4392.243637
4463.488778
4385.159634
4430.216803
4422.723299
4428.148758
4429.077075
4430.162935
4430.626906
4429.660600
4428.006895
4426.817585
4425.267221
4426.217479
4424.887728
4428.655417
4431.936859
4429.559607
4428.416994
4427.026943
4440.738520
4432.189539
4423.639252
4423.027883
4443.380432
4439.156900
4424.197937
4423.062042
4392.462850
4415.600868
4411.106843
4413.744749
4466.174337
4444.740004
4415.579226
4394.610081
4427.973438
4428.515815
4427.549464
4425.959518
4427.493723
4428.264896
4429.849369
4431.815040
4431.529096
4430.411551
4427.513009
4424.331404
4426.652447
4426.602150
4427.314605
4433.889640
4424.896804
4433.285383
4465.065226
4380.733203
4422.371697
4425.186702
4442.870299
4433.374609
4450.825264
4456.189188
4438.233335
4398.000282
4434.987109
4389.046794
4445.786752
4427.934701
4428.982264
4429.979615
4430.574021
4429.577605
4427.890844
4426.751466
4425.628548
4426.148595
4424.811850
4428.109523
4431.977817
4429.843189
4428.107164
4427.835806
4419.690232
4445.402055
4425.814611
4450.486540
4457.124271
4433.686932
4456.771762
4462.173147
4377.793460
4442.453063
4399.194428
4440.764413
4468.221718
4386.492909
4461.909099
4400.862892
4427.828402
4428.749092
4427.059487
4426.486885
4426.483058
4428.935129
4428.964327
4432.014274
4431.082568
4430.431731
4427.015605
4424.157128
4425.348848
4426.347979
4425.100593
4430.889444
4458.376639
4436.892299
4392.578556
4427.845036
4427.095138
4428.678027
4448.652146
4454.073330
4425.401109
4469.053714
4408.395255
4430.280202
4418.142822
4426.312475
4433.315193
4427.637247
4429.362553
4429.309625
4430.862966
4429.611929
4427.953341
4426.551961
4426.316949
4425.596276
4425.057600
4427.113429
4431.914800
4428.213948
4427.534697
4424.882485
4419.798369
4423.662022
4416.185854
4402.233736
4411.785298
4445.707925
4444.092094
4433.456283
4434.035970
4423.492803
4423.188598
4448.762575
4421.377283
4417.403685
4493.102318
4442.443509
4427.517612
4428.998961
4426.713742
4426.876419
4425.912760
4429.492000
4428.315848
4432.355601
4430.553166
4430.551534
4426.556117
4424.397428
4424.674574
4425.472770
4426.056381
4422.787496
4428.765889
4399.949534
4462.466966
4457.931355
4413.925654
4425.604825
4430.256495
4427.562860
4437.013560
4410.006492
4451.580434
4405.622699
4414.791189
4402.112723
4452.717658
4427.461823
4429.595375
4428.922423
4431.440393
4429.012386
4428.475153
4425.748706
4427.008229
4425.313870
4425.341954
4426.733913
4431.691983
4428.606167
4427.900467
4424.513039
4420.958976
4428.596540
4399.880797
4447.269093
4435.456097
4435.653129
4424.215494
4441.067771
4423.584190
4423.246957
4393.265649
4429.384452
4426.020005
4455.943147
4408.230863
4398.147117
4427.654203
4428.793555
4427.025756
4426.290325
4426.443722
4428.405392
4428.754294
4432.419849
4430.377217
4430.894375
4426.821033
4425.009332
4423.957098
4426.156273
4424.182623
4436.116269
4439.159348
4441.278340
4415.699700
4424.323035
4455.532074
4421.710159
4426.345237
4420.461431
4458.843011
4438.575290
4415.999882
4449.844691
4389.748221
4434.639917
4428.749667
4427.700886
4429.012360
4429.630521
4430.924941
4429.133299
4428.338214
4426.339096
4426.552357
4426.888739
4424.877406
4426.677130
4431.803112
4430.180728
4427.431870
4426.368827
4411.512310
4412.103820
4439.087052
4453.167569
4388.875586
4425.053322
4443.277441
4417.187882
4453.167784
4426.151952
4448.265513
4390.874234
4434.374836
4431.332261
4415.485496
4411.855538
4427.976395
4428.704145
4427.212287
4426.045691
4426.429816
4427.696811
4429.398923
4431.768945
4430.823869
4430.256458
4427.893543
4423.743948
4425.159877
4425.270892
4426.091898
4444.334414
4453.211777
4436.864774
4448.046293
4374.238095
4421.373446
4444.564091
4370.257828
4469.575969
4459.316830
4442.402002
4370.417746
4442.458895
4432.723926
4429.698458
4430.144259
4427.767468
4428.493947
4429.938107
4430.065891
4430.150702
4427.222816
4427.444624
4425.961246
4427.637416
4424.042148
4426.510770
4432.404905
4428.775491
4426.616599
4427.086814
4433.815183
4419.049685
4422.938224
4456.375100
4383.624316
4434.938471
4434.132399
4429.057552
4470.771298
4453.144575
4465.852206
4406.032481
4432.762646
4434.969252
4386.070638
4431.989182
4427.723489
4429.020965
4427.081519
4426.578804
4425.448558
4428.960565
4428.549319
4432.113563
4431.156328
4431.025722
4427.074027
4424.364342
4423.843934
4424.116221
4424.905009
4433.667974
4429.358071
4418.682397
4386.620537
4431.769428
4443.527528
4437.867727
4419.286793
4394.767267
4455.156494
4408.839715
4422.772675
4398.142509
4418.685853
4409.016547
4441.368928
4427.444432
4429.431878
4428.305463
4431.808697
4429.589707
4428.538166
4426.908658
4428.323839
4426.045120
4424.520014
4427.138574
4430.937914
4428.243337
4427.629149
4424.228534
4429.003707
4426.519426
4424.416051
4433.483733
4461.220453
4413.227117
4419.642920
4478.728008
4419.523671
4426.485725
4415.283124
4385.660864
4477.169256
4422.162396
4580.702717
4413.961735
4427.543741
4428.927670
4427.771015
4426.290542
4426.053958
4428.798270
4427.932638
4432.998708
4430.298199
4430.489596
4426.581712
4425.949510
4423.459209
4425.518798
4422.239872
4432.072807
4419.777980
4429.222280
4421.514317
4462.590499
4463.553563
4441.621257
4442.396084
4473.511646
4448.293412
4435.402643
4449.921841
4446.275916
4426.226654
4273.471329
4427.464266
4427.843814
4429.652388
4428.446651
4432.146937
4428.834206
4428.993580
4425.499521
4428.763803
4424.492043
4425.849088
4426.162369
4430.174119
4427.390675
4427.234045
4421.885755
4414.715244
4400.221804
4397.856327
4413.139159
4446.338320
4413.961240
4440.056733
4443.268583
4439.147960
4422.989987
4397.880365
4426.110457
4449.788995
4449.116810
4381.161153
4400.276838