# vtk DataFile Version 2.0
mfree iwf
ASCII

DATASET UNSTRUCTURED_GRID
POINTS 6231 float
0.000000 0.000300 0.000000
0.000000 0.000310 0.000000
0.000000 0.000320 0.000000
0.000000 0.000330 0.000000
0.000000 0.000340 0.000000
0.000000 0.000350 0.000000
0.000000 0.000360 0.000000
0.000001 0.000370 0.000000
0.000001 0.000380 0.000000
0.000001 0.000390 0.000000
0.000001 0.000400 0.000000
0.000001 0.000410 0.000000
0.000001 0.000420 0.000000
0.000001 0.000430 0.000000
0.000001 0.000440 0.000000
0.000001 0.000450 0.000000
0.000002 0.000460 0.000000
0.000002 0.000470 0.000000
0.000002 0.000480 0.000000
0.000001 0.000492 0.000000
0.000006 0.000501 0.000000
0.001106 0.001144 0.000000
0.001180 0.001177 0.000000
0.001123 0.001150 0.000000
0.001193 0.001181 0.000000
0.001215 0.001186 0.000000
0.001264 0.001189 0.000000
0.001272 0.001187 0.000000
0.001284 0.001181 0.000000
0.001297 0.001178 0.000000
0.001326 0.001178 0.000000
0.000010 0.000300 0.000000
0.000010 0.000310 0.000000
0.000010 0.000320 0.000000
0.000010 0.000330 0.000000
0.000010 0.000340 0.000000
0.000010 0.000350 0.000000
0.000010 0.000360 0.000000
0.000011 0.000370 0.000000
0.000011 0.000380 0.000000
0.000011 0.000390 0.000000
0.000011 0.000400 0.000000
0.000011 0.000410 0.000000
0.000011 0.000420 0.000000
0.000011 0.000430 0.000000
0.000011 0.000440 0.000000
0.000011 0.000450 0.000000
0.000012 0.000460 0.000000
0.000011 0.000472 0.000000
0.000013 0.000478 0.000000
0.000009 0.000492 0.000000
0.000013 0.000498 0.000000
0.001234 0.001182 0.000000
0.001249 0.001182 0.000000
0.001257 0.001183 0.000000
0.001263 0.001180 0.000000
0.001279 0.001173 0.000000
0.001290 0.001171 0.000000
0.001304 0.001167 0.000000
0.001315 0.001168 0.000000
0.001320 0.001165 0.000000
0.001323 0.001174 0.000000
0.000020 0.000300 0.000000
0.000020 0.000310 0.000000
0.000020 0.000320 0.000000
0.000020 0.000330 0.000000
0.000021 0.000340 0.000000
0.000020 0.000350 0.000000
0.000021 0.000360 0.000000
0.000020 0.000370 0.000000
0.000020 0.000380 0.000000
0.000021 0.000390 0.000000
0.000020 0.000400 0.000000
0.000022 0.000410 0.000000
0.000020 0.000420 0.000000
0.000022 0.000430 0.000000
0.000020 0.000439 0.000000
0.000023 0.000451 0.000000
0.000021 0.000460 0.000000
0.000022 0.000470 0.000000
0.000021 0.000482 0.000000
0.000024 0.000494 0.000000
0.000020 0.000497 0.000000
0.001200 0.001172 0.000000
0.001229 0.001177 0.000000
0.001240 0.001178 0.000000
0.001245 0.001176 0.000000
0.001254 0.001169 0.000000
0.001269 0.001172 0.000000
0.001295 0.001164 0.000000
0.001310 0.001163 0.000000
0.001317 0.001155 0.000000
0.001324 0.001151 0.000000
0.000030 0.000300 0.000000
0.000030 0.000310 0.000000
0.000030 0.000320 0.000000
0.000031 0.000330 0.000000
0.000030 0.000340 0.000000
0.000031 0.000350 0.000000
0.000030 0.000360 0.000000
0.000030 0.000370 0.000000
0.000031 0.000380 0.000000
0.000031 0.000390 0.000000
0.000031 0.000400 0.000000
0.000031 0.000410 0.000000
0.000031 0.000419 0.000000
0.000032 0.000430 0.000000
0.000031 0.000440 0.000000
0.000031 0.000450 0.000000
0.000031 0.000459 0.000000
0.000036 0.000473 0.000000
0.000029 0.000478 0.000000
0.000032 0.000488 0.000000
0.000032 0.000497 0.000000
0.000063 0.000500 0.000000
0.001221 0.001173 0.000000
0.001238 0.001165 0.000000
0.001263 0.001162 0.000000
0.001273 0.001155 0.000000
0.001279 0.001166 0.000000
0.001283 0.001159 0.000000
0.001294 0.001156 0.000000
0.001300 0.001154 0.000000
0.001323 0.001143 0.000000
0.000040 0.000300 0.000000
0.000040 0.000310 0.000000
0.000040 0.000320 0.000000
0.000040 0.000331 0.000000
0.000040 0.000341 0.000000
0.000041 0.000349 0.000000
0.000040 0.000360 0.000000
0.000041 0.000369 0.000000
0.000040 0.000380 0.000000
0.000041 0.000390 0.000000
0.000041 0.000399 0.000000
0.000041 0.000410 0.000000
0.000041 0.000420 0.000000
0.000040 0.000430 0.000000
0.000042 0.000439 0.000000
0.000043 0.000450 0.000000
0.000042 0.000460 0.000000
0.000037 0.000469 0.000000
0.000045 0.000477 0.000000
0.000043 0.000496 0.000000
0.000040 0.000498 0.000000
0.001001 0.001005 0.000000
0.001228 0.001162 0.000000
0.001247 0.001161 0.000000
0.001251 0.001157 0.000000
0.001264 0.001163 0.000000
0.001283 0.001150 0.000000
0.001304 0.001143 0.000000
0.001302 0.001134 0.000000
0.001313 0.001146 0.000000
0.001320 0.001134 0.000000
0.000050 0.000300 0.000000
0.000050 0.000310 0.000000
0.000050 0.000320 0.000000
0.000050 0.000329 0.000000
0.000051 0.000339 0.000000
0.000050 0.000351 0.000000
0.000050 0.000360 0.000000
0.000050 0.000371 0.000000
0.000051 0.000379 0.000000
0.000050 0.000390 0.000000
0.000052 0.000400 0.000000
0.000049 0.000410 0.000000
0.000053 0.000419 0.000000
0.000051 0.000430 0.000000
0.000053 0.000440 0.000000
0.000047 0.000451 0.000000
0.000054 0.000458 0.000000
0.000052 0.000470 0.000000
0.000055 0.000483 0.000000
0.000048 0.000488 0.000000
0.000050 0.000498 0.000000
0.001219 0.001179 0.000000
0.001174 0.001168 0.000000
0.001240 0.001153 0.000000
0.001249 0.001140 0.000000
0.001268 0.001146 0.000000
0.001286 0.001142 0.000000
0.001277 0.001139 0.000000
0.001295 0.001143 0.000000
0.001310 0.001134 0.000000
0.001316 0.001124 0.000000
0.000060 0.000300 0.000000
0.000060 0.000310 0.000000
0.000060 0.000321 0.000000
0.000060 0.000332 0.000000
0.000061 0.000339 0.000000
0.000059 0.000349 0.000000
0.000061 0.000359 0.000000
0.000060 0.000369 0.000000
0.000062 0.000380 0.000000
0.000059 0.000390 0.000000
0.000063 0.000399 0.000000
0.000060 0.000410 0.000000
0.000063 0.000419 0.000000
0.000058 0.000430 0.000000
0.000065 0.000439 0.000000
0.000061 0.000449 0.000000
0.000065 0.000460 0.000000
0.000055 0.000471 0.000000
0.000064 0.000475 0.000000
0.000068 0.000485 0.000000
0.000058 0.000496 0.000000
0.001209 0.001178 0.000000
0.001218 0.001163 0.000000
0.001234 0.001145 0.000000
0.001255 0.001148 0.000000
0.001265 0.001135 0.000000
0.001266 0.001126 0.000000
0.001296 0.001125 0.000000
0.001287 0.001132 0.000000
0.001305 0.001123 0.000000
0.001312 0.001115 0.000000
0.000070 0.000300 0.000000
0.000070 0.000310 0.000000
0.000070 0.000319 0.000000
0.000070 0.000328 0.000000
0.000071 0.000340 0.000000
0.000070 0.000351 0.000000
0.000072 0.000359 0.000000
0.000068 0.000372 0.000000
0.000082 0.000376 0.000000
0.000069 0.000390 0.000000
0.000073 0.000400 0.000000
0.000068 0.000411 0.000000
0.000074 0.000421 0.000000
0.000068 0.000429 0.000000
0.000076 0.000439 0.000000
0.000066 0.000452 0.000000
0.000078 0.000458 0.000000
0.000072 0.000470 0.000000
0.000076 0.000486 0.000000
0.000068 0.000495 0.000000
0.000076 0.000496 0.000000
0.000991 0.000984 0.000000
0.001208 0.001166 0.000000
0.001229 0.001156 0.000000
0.001247 0.001125 0.000000
0.001264 0.001145 0.000000
0.001277 0.001127 0.000000
0.001287 0.001125 0.000000
0.001281 0.001115 0.000000
0.001301 0.001114 0.000000
0.001309 0.001106 0.000000
0.000080 0.000300 0.000000
0.000080 0.000310 0.000000
0.000081 0.000321 0.000000
0.000079 0.000332 0.000000
0.000082 0.000340 0.000000
0.000080 0.000350 0.000000
0.000082 0.000361 0.000000
0.000074 0.000371 0.000000
0.000075 0.000383 0.000000
0.000080 0.000391 0.000000
0.000090 0.000397 0.000000
0.000079 0.000410 0.000000
0.000086 0.000417 0.000000
0.000078 0.000430 0.000000
0.000086 0.000445 0.000000
0.000076 0.000448 0.000000
0.000084 0.000464 0.000000
0.000074 0.000470 0.000000
0.000088 0.000472 0.000000
0.000085 0.000482 0.000000
0.000084 0.000495 0.000000
0.001199 0.001177 0.000000
0.001170 0.001173 0.000000
0.001232 0.001134 0.000000
0.001243 0.001142 0.000000
0.001256 0.001132 0.000000
0.001260 0.001118 0.000000
0.001271 0.001119 0.000000
0.001290 0.001112 0.000000
0.001297 0.001105 0.000000
0.001304 0.001097 0.000000
0.000090 0.000300 0.000000
0.000090 0.000310 0.000000
0.000090 0.000319 0.000000
0.000090 0.000329 0.000000
0.000091 0.000339 0.000000
0.000089 0.000350 0.000000
0.000092 0.000362 0.000000
0.000088 0.000369 0.000000
0.000092 0.000379 0.000000
0.000089 0.000387 0.000000
0.000084 0.000404 0.000000
0.000093 0.000409 0.000000
0.000086 0.000425 0.000000
0.000096 0.000426 0.000000
0.000090 0.000435 0.000000
0.000097 0.000455 0.000000
0.000087 0.000453 0.000000
0.000098 0.000472 0.000000
0.000106 0.000480 0.000000
0.000089 0.000494 0.000000
0.000094 0.000495 0.000000
0.001009 0.001021 0.000000
0.001202 0.001160 0.000000
0.001191 0.001167 0.000000
0.001221 0.001153 0.000000
0.001237 0.001123 0.000000
0.001265 0.001109 0.000000
0.001277 0.001108 0.000000
0.001285 0.001102 0.000000
0.001293 0.001096 0.000000
0.001300 0.001088 0.000000
0.000100 0.000300 0.000000
0.000100 0.000310 0.000000
0.000100 0.000321 0.000000
0.000100 0.000331 0.000000
0.000102 0.000341 0.000000
0.000099 0.000349 0.000000
0.000101 0.000358 0.000000
0.000100 0.000370 0.000000
0.000102 0.000380 0.000000
0.000100 0.000391 0.000000
0.000101 0.000400 0.000000
0.000103 0.000407 0.000000
0.000101 0.000417 0.000000
0.000100 0.000437 0.000000
0.000108 0.000442 0.000000
0.000096 0.000445 0.000000
0.000107 0.000460 0.000000
0.000096 0.000465 0.000000
0.000094 0.000481 0.000000
0.000106 0.000491 0.000000
0.000101 0.000494 0.000000
0.001129 0.001154 0.000000
0.001138 0.001158 0.000000
0.001164 0.001171 0.000000
0.001244 0.001130 0.000000
0.001253 0.001117 0.000000
0.001254 0.001107 0.000000
0.001275 0.001099 0.000000
0.001266 0.001096 0.000000
0.001288 0.001091 0.000000
0.001295 0.001080 0.000000
0.000110 0.000300 0.000000
0.000110 0.000310 0.000000
0.000110 0.000319 0.000000
0.000110 0.000328 0.000000
0.000110 0.000339 0.000000
0.000111 0.000351 0.000000
0.000109 0.000361 0.000000
0.000112 0.000370 0.000000
0.000110 0.000379 0.000000
0.000110 0.000389 0.000000
0.000112 0.000399 0.000000
0.000111 0.000414 0.000000
0.000116 0.000423 0.000000
0.000105 0.000427 0.000000
0.000114 0.000432 0.000000
0.000107 0.000450 0.000000
0.000116 0.000462 0.000000
0.000110 0.000470 0.000000
0.000116 0.000480 0.000000
0.000111 0.000493 0.000000
0.000119 0.000492 0.000000
0.001074 0.001111 0.000000
0.001019 0.001040 0.000000
0.001196 0.001155 0.000000
0.001216 0.001143 0.000000
0.001205 0.001140 0.000000
[...]
POINT_DATA 6231
SCALARS density float 1
LOOKUP_TABLE default
4415.657989
4428.007930
4423.761816
4422.653481
4422.150095
4421.582432
4426.677308
4428.202677
4428.524629
4430.267973
4429.260694
4433.415455
4428.986311
4428.989861
4430.998058
4440.141655
4423.571227
4432.177976
4413.346636
4424.345550
4411.279098
4430.528418
4422.535086
4443.774331
4435.920657
4419.058793
4400.865309
4426.042939
4448.816957
4449.981202
4416.185577
4419.566682
4426.180520
4425.070957
4428.052571
4432.332085
4431.059975
4423.669904
4426.462046
4426.944204
4428.588286
4423.484759
4424.903294
4424.014615
4439.225426
4416.715972
4427.307320
4410.834482
4440.887510
4463.247154
4459.435685
4416.240848
4410.998467
4415.849388
4438.880545
4500.969085
4400.812533
4402.940354
4426.633279
4399.238629
4450.765351
4437.719223
4420.359682
4429.257562
4426.941117
4426.749634
4419.677340
4427.107851
4427.697097
4435.181487
4422.361484
4431.651803
4429.649248
4441.740416
4421.733037
4436.082910
4417.294439
4473.584465
4401.498237
4455.559517
4351.855329
4450.995287
4421.589231
4425.308432
4443.225191
4422.457622
4496.656793
4347.754045
4360.197620
4411.804432
4424.648896
4426.374877
4405.273651
4429.024667
4432.242816
4425.033516
4433.601035
4435.590718
4431.409732
4427.100001
4429.880586
4424.752289
4439.468407
4409.763497
4431.011123
4418.503938
4445.317077
4406.711449
4428.146469
4390.286537
4453.010806
4371.772963
4550.556851
4373.734428
4435.478121
4454.149044
4413.010560
4453.573387
4337.805031
4486.050734
4455.878826
4422.919992
4476.503215
4426.902620
4429.779089
4426.989494
4431.454194
4433.295477
4426.612261
4433.114290
4430.304783
4436.997738
4424.357239
4431.131137
4421.788813
4449.192207
4410.498670
4445.385386
4415.031026
4452.834451
4387.889834
4512.428645
4310.863744
4418.656451
4384.846325
4431.870275
4420.724710
4446.349402
4451.331820
4492.204871
4430.102742
4405.989221
4474.948933
4443.974435
4412.603827
4431.246037
4432.263478
4435.339880
4433.543953
4429.501549
4439.251346
4417.541166
4438.601556
4420.658412
4436.524903
4416.592229
4439.374591
4403.217195
4446.994050
4374.311160
4477.294040
4364.072024
4471.179302
4363.751234
4538.759714
4381.441693
4435.734071
4425.867578
4446.061211
4462.071483
4472.082580
4453.286509
4386.898680
4402.980420
4428.636729
4419.337352
4431.706189
4436.651582
4418.239386
4439.732957
4435.234608
4438.551992
4418.227038
4443.346425
4401.108181
4449.310491
4423.731678
4439.881782
4419.690504
4446.868842
4406.492670
4468.655046
4397.103991
4514.300813
4378.754380
4467.954630
4433.105510
4413.402593
4386.575998
4386.381892
4376.115640
4448.825789
4437.980678
4407.187862
4419.079748
4423.532600
4431.098871
4431.107408
4427.997990
4432.692406
4439.112562
4400.581722
4444.451882
4426.273724
4427.526647
4414.160087
4449.799456
4389.966214
4437.496202
4409.851978
4435.355429
4440.277713
4458.488877
4430.085610
4454.492922
4452.756916
4414.920058
4389.834821
4434.186229
4470.540876
4455.899237
4415.812234
4433.500201
4418.355535
4452.748883
4434.946430
4445.093190
4412.996628
4431.243026
4425.789133
4420.501969
4418.037114
4429.432223
4444.526159
4417.009170
4438.693498
4424.908746
4445.689155
4417.046480
4433.308146
4417.518101
4439.686903
4451.109586
4401.691986
4459.657890
4447.497830
4370.999189
4462.825379
4411.842866
4427.340102
4414.363982
4425.192335
4438.214419
4382.428584
4451.206126
4442.970738
4401.781572
4438.782802
4434.691348
4425.106290
4435.603389
4437.441964
4416.806795
4431.936695
4417.660585
4430.500704
4445.485635
4424.919102
4419.740023
4445.130097
4414.112037
4428.604236
4458.410469
4411.782212
4394.471699
4426.835464
4414.179110
4435.858636
4424.659547
4412.759560
4428.341018
4414.022530
4436.953260
4465.527354
4409.993288
4384.859464
4436.942702
4437.836953
4434.863832
4413.220111
4429.405067
4430.546747
4416.557456
4440.114494
4428.325062
4424.684661
4443.449740
4408.843410
4446.887042
4421.577124
4440.811589
4437.194364
4415.601839
4403.108212
4450.817501
4457.529467
4429.793578
4460.414784
4428.499390
4428.266464
4415.409035
4425.753358
4430.411422
4427.849830
4449.634368
4448.795316
4414.521008
4410.153225
4469.919734
4447.335372
4425.903550
4430.653176
4435.809277
4437.299589
4430.765466
4429.679628
4417.737929
4434.549786
4429.783554
4427.001490
4426.986655
4407.694135
4441.104563
4408.431570
4440.632256
4422.142693
4418.105834
4475.427600
4401.654843
4459.440510
4407.665348
4412.445743
4439.627615
4438.712496
4404.222583
4393.646058
4393.023527
4445.184710
4440.456373
4414.118687
4423.517062
4452.155420
4433.217355
4428.193327
4423.311370
4423.868580
4426.923488
4443.687394
4409.815005
4441.411487
4404.588795
4444.594706
4435.739972
4421.362536
4429.126131
4457.370289
4414.002023
4403.878267
4415.008366
4382.028202
4433.223212
4435.415020
4391.987077
4435.976150
4418.708710
4427.189491
4456.490158
4451.741134
4414.542441
4354.357688
4458.572162
4388.865352
4419.211265
4439.907540
4430.295397
4432.540326
4447.264490
4414.493421
4433.740678
4422.586954
4434.729105
4428.577146
4414.357172
4413.086936
4417.176180
4450.107801
4414.430159
4393.364908
4473.325555
4411.579660
4467.731914
4488.547636
4417.176926
4440.781779
4434.142309
4421.735472
4422.698542
4424.341829
4438.180171
4443.606729
4459.475844
4464.645093
4487.846170
4454.129210
4432.424529
4433.907578
4431.289256
4413.882315
4438.216376
4419.982456
4436.589039
4419.640159
4430.689439
4414.706751
4433.275814
4440.124460
4458.003835
4432.757049
4430.880338
4357.692409
4411.327802
4485.335071
4570.399727
4390.625367
4379.958153
4426.493543
4419.165657
4435.891464
4450.677357
4413.615693
4459.533482
4427.298747
4404.359083
4407.989949
4446.250837
4428.434746
4437.586999
4435.233461
4419.842335
4447.902021
4399.257421
4438.987899
4423.500419
4400.879551
4424.794447
4448.247675
4430.665564
4409.496072
4413.730849
4445.241701
4433.964697
4521.510028
4344.060877
4324.909461
4458.215280
4392.910876
4427.922981
4429.518638
4453.532586
4479.445042
4443.809940
4443.244048
4432.916659
4390.284789
4422.167935
4413.278457
4433.523888
4429.385402
4428.352984
4427.478831
4423.224915
4445.885818
4419.357481
4419.962405
4441.682581
4448.518514
4450.573410
4418.398222
4465.626619
4393.924672
4437.119882
4436.667752
4402.781112
4486.586447
4468.833893
4422.093551
4406.460623
4424.715459
4408.986888
4467.545855
4367.525360
4461.216993
4470.736928
4423.749229
4404.200959
4432.347229
4429.939860
4436.566546
4425.542006
4431.982987
4448.839589
4422.178078
4439.135084
4394.240446
4443.606149
4444.731478
4407.008420
4417.963020
4425.561889
4420.512950
4456.856843
4420.939940
4431.337453
4396.641230
4468.049143
4382.677919
4393.207420
4419.516287
4427.212392
4431.900007
4439.032069
4393.315058
4470.031616
4438.249403
4396.004509
4459.988013
4424.911327
4438.259488
4425.600477
4433.686538
4422.534292
4428.186008
4424.310375
4422.125073
4445.012200
4412.003133
4418.079235
4428.458547
4427.868296
4459.018931
4437.938293
4436.022081
4406.677005
4453.996214
4392.421205
4434.993985
4422.391131
4437.215357
4387.644851
4423.397946
4432.403182
4421.645317
4452.052219
4421.976538
4470.956247
4469.878191
4414.234281
4425.073187
4420.811599
4421.603404
4431.405248
4427.326656
4420.900728
4444.829601
4402.306396
4458.730094
4406.972478
4446.691096
4426.506340
4410.060977
4411.441153
4437.309484
4412.641665
4410.324148
4449.751589
4374.949682
4463.264052
4426.239142
4552.083400
4377.523917
4469.991382
4417.584017
4408.442118
4442.871591
4380.167670
4463.448009
4399.588134
4414.621637
4424.679139
4422.544089
4430.166583
4428.253972
4430.177827
4419.162372
4421.841669
4445.279599
4400.161666
4432.396374
4396.684818
4431.759017
4460.037416
4424.016325
4434.818218
4436.388618
4444.250635
4432.495913
4472.230138
4472.959282
4390.672714
4385.398229
4438.608048
4417.183868
4433.530864
4466.437618
4443.137472
4404.610266
4425.153805
4454.403350
4464.544788
4422.296883
4410.990871
4433.184148
4424.880684
4429.965383
4442.603208
4411.699395
4447.915855
4408.618925
4425.002126
4425.737821
4413.357902
4412.544964
4414.159019
4457.148534
4425.101468
4395.582465
4466.392647
4427.278318
4399.884705
4396.514314
4458.513901
4415.220804
4449.557701
4418.716612
4426.412943
4438.214734
4392.018229
4380.224637
4455.049098
4358.309357
4423.728821
4442.298837
4429.684698
4434.481947
4423.377782
4431.393535
4427.965681
4399.802284
4439.842243
4424.048865
4415.917416
4445.728430
4399.011479
4447.631779
4459.771113
4417.386705
4390.794468
4455.590586
4419.546559
4415.907372
4453.245125
4451.082320
4429.871027
4423.753191
4417.054192
4461.127138
4403.181894
4427.820375
4477.441595
4338.608338
4488.415616
4389.617084
4421.401001
4422.150609
4431.579817
4429.458115
4416.230631
4440.754280
4435.676959
4423.573749
4420.592227
4404.518423
4439.501037
4423.526109
4442.687065
4392.547870
4436.189067
4428.100544
4420.423395
4412.018541
4448.629947
4400.126580
4432.961722
4425.035713
4408.825911
4432.835270
4425.069975
4431.571704
4455.555805
4435.747578
4404.969893
4449.246901
4437.286009
4442.790940
4427.590420
4427.044749
4433.547941
4435.347467
4404.631799
4425.085873
4406.270225
4439.197094
4443.991908
4426.100330
4432.654409
4430.944932
4441.253603
4454.249793
4386.932259
4452.030560
4401.654239
4455.114713
4435.366502
4472.403719
4412.168161
4421.025662
4459.019539
4411.566986
4436.026144
4456.244830
4430.368263
4459.105096
4420.515674
4421.786816
4433.283525
4434.565297
4433.780796
4410.837901
4442.258821
4435.058392
4436.973357
4440.498077
4419.682023
4410.011233
4446.399524
4435.930862
4442.820228
4440.375333
4431.097505
4430.978556
4437.341210
4402.909162
4448.392865
4363.732722
4427.590584
4431.202484
4416.106601
4463.690811
4440.345446
4415.498906
4389.588075
4445.829875
4439.601693
4445.719965
4411.108436
4419.590203
4421.345908
4441.283483
4428.107083
4423.484744
4405.952253
4431.761917
4400.689556
4454.297469
4432.320244
4437.168519
4404.157768
4463.961920
4399.519770
4407.068818
4395.154691
4449.499516
4431.681102
4462.186382
4419.341231
4434.393319
4428.800410
4432.856822
4424.167384
4405.850425
4422.865238
4453.681164
4419.713639
4414.420570
4476.464402
4409.246454
4441.702266
4428.722417
4431.253766
4420.232476
4439.565185
4433.569496
4443.781541
4427.208918
4427.302516
4400.158655
4448.954842
4403.677803
4416.985732
4422.468549
4451.856050
4422.259392
4454.609763
4405.476398
4455.318750
4421.913863
4437.886229
4412.938155
4424.857651
4425.683111
4430.411853
4414.746987
4414.689808
4427.216394
4438.561768
4424.405884
4401.796098
4430.977701
4431.627533
4426.110822
4424.582176
4435.291135
4417.179062
4412.579795
4436.562593
4428.416009
4430.614445
4422.734391
4435.596240
4443.428381
4423.076633
4441.812044
4389.215175
4446.798465
4401.967289
4454.205634
4426.757505
4432.450676
4409.183988
4431.235587
4416.808699
4427.972058
4471.848958
4401.635555
4405.039532
4447.324870
4406.516474
4437.040474
4408.149961
4422.673917
4425.045945
4441.852373
4415.882961
4442.362099
4441.527578
4424.199120
4422.437792
4442.264658
4427.224820
4412.252664
4436.243549
4439.439659
4403.941705
4425.999302
4428.958218
4418.749809
4377.412266
4371.943713
4459.061731
4430.973004
4407.301488
4423.488614
4404.524461
4451.948896
4419.840505
4408.637390
4464.122375
4423.766842
4424.072875
4445.700709
4431.744780
4431.708033
4425.196361
4422.397174
4433.325935
4397.633542
4445.382974
4436.945999
4405.785011
4442.042646
4463.701627
4407.173351
4437.299888
4439.098445
4439.297560
4396.933042
4423.165750
4495.080907
4467.054633
4427.589319
4435.400673
4433.379915
4432.160882
4419.635010
4420.241467
4418.476144
4438.961685
4410.682824
4430.551838
4417.579801
4436.170921
4434.064194
4430.571747
4428.674213
4447.195841
4419.321739
4452.967759
4427.951745
4417.704644
4450.871324
4411.570849
4411.237649
4442.077370
4447.765978
4408.645271
4432.836054
4458.428548
4385.241466
4453.653061
4404.147262
4386.818088
4430.545828
4434.984391
4427.138378
4392.456047
4474.289557
4399.825296
4414.313651
4423.065087
4471.053408
4358.476419
4413.963822
4433.156325
4435.178642
4429.652168
4427.452208
4414.414206
4446.554818
4394.959292
4431.311367
4414.130832
4456.060109
4447.009636
4416.874986
4409.731413
4465.058108
4435.627655
4433.185307
4395.051496
4392.147091
4466.770330
4457.738761
4442.859310
4403.394621
4402.154255
4430.826102
4440.636069
4444.447802
4370.879819
4476.394813
4432.923394
4452.651204
4417.459560
4437.433970
4437.317833
4423.808695
4434.465197
4443.270686
4421.940445
4422.932419
4404.372456
4453.921910
4422.138585
4400.371848
4457.026185
4431.465275
4421.584157
4392.940608
4438.610480
4462.677445
4448.383852
4333.867688
4473.177320
4462.916646
4432.656475
4470.598189
4423.098403
4440.761019
4458.582605
4441.970427
4428.270904
4406.396207
4411.045961
4436.866616
4433.328324
4433.635149
4425.660672
4431.928143
4407.306748
4445.228217
4437.975692
4412.577565
4426.322522
4455.639070
4412.163846
4433.933476
4404.535835
4439.420136
4406.998702
4450.110113
4367.518296
4449.903060
4317.052974
4498.398909
4438.319466
4418.845104
4428.302004
4491.371061
4425.367856
4437.892274
4397.602643
4471.478686
4354.542917
4432.667427
4446.942638
4433.963743
4435.052315
4426.794033
4436.937857
4429.647863
4432.862798
4417.942676
4449.229242
4409.291286
4414.725068
4429.444886
4438.667296
4410.140287
4465.449354
4373.279420
4464.883963
4390.315388
4480.214881
4471.411196
4507.259516
4414.280594
4418.480692
4380.721541
4434.990956
4411.549929
4440.846007
4452.322195
4444.275530
4442.215968
4350.955690
4454.318534
4426.429043
4424.788327
4433.902965
4421.829648
4404.450762
4415.200813
4410.445416
4419.650982
4439.279188
4450.808772
4419.844263
4449.373275
4407.816571
4430.228002
4441.865541
4431.107265
4434.479558
4425.157204
4432.785756
4504.042659
4446.783647
4429.660711
4439.468998
4422.748472
4393.250143
4458.359566
4419.711803
4440.801943
4435.081773
4445.289386
4412.129003
4425.779814
4422.919904
4444.122877
4433.316719
4455.831528
4436.454933
4446.367912
4445.180436
4390.153839
4402.237337
4443.296734
4452.496720
4424.757552
4398.269616
4409.676697
4420.255209
4464.587239
4404.313101
4390.894294
4430.996050
4391.812260
4418.932186
4424.825558
4434.109665
4412.005505
4447.486999
4382.748544
4390.344230
4480.523586
4465.675992
4405.622264
4432.727134
4434.729125
4404.070341
4428.594352
4442.364189
4423.713876
4393.825412
4429.617655
4446.962925
4415.897249
4455.601776
4416.760255
4448.828349
4430.586279
4446.434132
4472.914757
4373.393955
4441.105001
4434.523916
4445.592948
4430.836416
4439.219939
4424.821958
4447.486603
4440.736450
4462.506114
4469.501888
4443.711526
4387.570368
4418.970919
4399.602620
4429.251770
4423.397514
4443.884495
4447.665263
4398.214119
4446.023051
4437.707758
4447.073740
4407.920938
4423.192571
4440.721823
4421.755148
4413.494994
4415.433229
4432.097867
4394.478120
4433.335641
4418.207314
4440.243125
4438.815431
4431.879779
4428.947464
4431.437051
4420.018676
4433.999833
4438.053511
4413.916116
4491.627547
4397.850419
4453.824206
4427.177336
4430.742955
4425.768710
4413.645159
4419.680346
4434.458785
4426.383382
4398.304351
4428.645027
4430.375867
4453.915498
4397.140748
4467.880363
4411.813451
4445.596792
4426.327741
4440.267716
4415.830049
4396.487713
4430.319146
4453.913328
4432.657590
4405.623908
4459.775190
4424.219192
4425.823095
4438.675411
4435.316431
4437.937931
4352.671394
4393.159810
4404.815704
4415.446536
4432.424992
4436.945844
4408.009680
4442.623529
4406.339880
4422.900749
4449.834370
4408.018751
4391.377374
4393.626752
4445.139703
4421.820467
4406.684191
4420.981683
4463.974723
4470.774301
4370.832585
4444.088567
4432.857242
4429.555484
4422.185949
4435.796653
4424.196273
4439.413469
4466.321016
4440.337220
4372.440158
4446.970974
4470.093851
4414.782930
4424.802125
4430.965443
4418.294994
4447.454564
4409.700991
4429.968937
4455.703614
4448.031646
4450.968193
4436.531915
4407.948101
4430.931719
4461.756897
4413.259721
4448.951666
4414.346410
4388.393523
4418.755763
4365.587852
4420.335724
4440.062490
4434.617331
4425.116247
4438.056826
4405.145444
4421.324622
4402.045086
4379.337283
4451.580740
4407.080593
4429.144235
4433.830006
4431.012335
4410.818893
4452.019168
4404.419387
4427.903761
4400.486653
4437.203745
4437.841460
4396.197394
4426.076852
4435.472237
4417.523034
4404.802973
4451.031656
4434.203435
4399.725186
4467.587053
4457.198921
4443.461785
4435.541041
4431.493256
4439.832429
4414.025443
4454.497135
4425.804328
4447.934964
4469.121203
4462.984954
4431.295937
4404.835282
4418.304157
4438.383118
4426.742963
4410.300942
4437.453208
4424.913033
4432.561375
4443.164326
4423.248404
4434.564708
4452.493111
4409.742092
4442.876889
4443.492595
4418.460787
4408.876876
4415.985293
4430.504741
4400.650883
4463.017868
4438.133591
4434.244049
4407.164337
4453.988062
4418.767937
4450.877760
4383.710067
4415.727305
4358.543929
4397.856052
4408.487428
4431.086649
4420.956501
4436.846747
4426.484684
4427.859858
4428.243871
4414.458471
4409.981727
4421.372613
4430.298485
4437.554218
4432.880480
4400.772261
4431.434490
4448.411745
4412.518306
4429.999793
4466.851128
4384.485798
4434.928796
4414.662041
4404.345946
4437.150450
4424.115295
4439.324747
4459.874229
4438.512933
4400.571627
4404.297982
4464.062777
4447.470963
4431.692288
4423.109966
4426.723873
4442.022811
4414.131639
4422.416329
4457.383784
4441.372339
4429.075799
4443.416670
4438.353663
4425.739857
4432.382448
4433.802374
4448.456327
4430.859651
4414.400631
4445.312382
4448.145758
4333.302616
4399.138545
4426.476975
4420.289848
4436.376330
4458.410220
4482.469822
4427.846672
4449.548065
4433.833544
4398.984513
4371.943966
4425.318004
4438.983318
4427.462229
4418.206320
4438.360279
4427.904301
4403.047153
4414.279678
4422.811915
4412.788477
4433.065960
4423.511747
4416.323548
4401.507206
4445.883045
4386.166195
4429.133046
4474.819813
4394.733447
4536.505674
4392.696180
4426.790516
4416.496957
4425.614901
4449.572420
4435.602433
4423.037143
4447.655403
4486.553592
4447.081936
4423.798040
4429.644585
4434.661866
4418.441351
4428.050110
4424.829868
4431.273704
4448.141953
4434.375392
4435.221743
4439.020059
4420.993240
4426.600886
4398.458056
4448.627980
4438.619625
4448.577007
4422.021342
4410.322140
4431.077943
4426.514064
4472.203362
4447.419326
4463.365028
4424.044799
4463.140474
4478.101266
4406.526827
4427.536035
4478.924022
4433.380668
4468.106202
4433.292712
4427.720850
4432.853543
4435.791527
4407.026805
4436.382000
4391.887006
4449.976733
4424.499245
4412.073262
4434.165633
4427.675985
4429.577013
4439.958521
4395.944239
4449.267919
4412.289824
4411.798253
4432.775665
4451.213639
4445.642441
4438.583532
4456.654592
4470.125024
4449.228342
4434.604628
4383.096065
4385.387736
4373.921071
4348.664823
4400.432442
4431.814350
4432.551211
4418.500288
4417.694077
4437.748991
4443.321873
4418.239396
4438.284209
4439.593694
4451.098669
4416.758732
4445.544453
4423.347239
4425.318237
4455.642377
4421.128360
4409.189313
4451.763424
4392.305301
4433.510141
4454.472236
4414.670672
4436.056646
4430.508905
4463.421763
4447.411767
4367.676085
4458.024662
4451.900286
4403.566833
4446.893584
4429.322952
4426.525295
4438.650453
4420.627237
4428.215045
4405.709149
4418.976998
4435.761161
4483.056210
4423.289958
4422.455352
4433.462935
4423.883588
4443.244415
4399.974133
4442.800264
4425.667693
4445.949989
4392.214378
4410.526977
4418.529024
4433.317495
4380.792577
4439.970165
4375.108587
4413.514934
4443.616839
4466.191843
4470.484610
4395.233111
4421.942812
4432.798551
4421.043058
4422.284605
4436.006241
4451.747792
4448.750896
4418.415290
4413.238512
4393.297714
4421.685564
4397.955117
4449.593352
4438.044357
4423.437061
4447.919359
4435.497418
4422.286472
4461.849333
4471.097408
4380.108862
4429.772066
4421.216926
4435.968325
4416.584569
4389.379150
4444.454331
4388.963814
4459.138001
4426.056846
4416.594408
4406.442111
4426.345487
4432.456787
4429.736945
4421.930331
4421.939136
4418.982902
4425.074958
4438.586052
4419.081212
4421.046928
4432.439529
4442.239851
4400.990165
4441.666563
4415.115156
4396.585755
4444.616140
4461.228305