# vtk DataFile Version 2.0
mfree iwf
ASCII

DATASET UNSTRUCTURED_GRID
POINTS 6231 float
0.000000 0.000300 0.000000
0.000000 0.000310 0.000000
0.000000 0.000320 0.000000
0.000000 0.000330 0.000000
0.000000 0.000340 0.000000
0.000000 0.000350 0.000000
0.000001 0.000360 0.000000
0.000001 0.000370 0.000000
0.000001 0.000380 0.000000
0.000001 0.000390 0.000000
0.000001 0.000400 0.000000
0.000001 0.000410 0.000000
0.000001 0.000420 0.000000
0.000001 0.000430 0.000000
0.000001 0.000440 0.000000
0.000002 0.000450 0.000000
0.000002 0.000460 0.000000
0.000002 0.000471 0.000000
0.000002 0.000480 0.000000
0.000002 0.000492 0.000000
0.000006 0.000501 0.000000
0.000370 0.000706 0.000000
0.000402 0.000780 0.000000
0.000377 0.000724 0.000000
0.000410 0.000793 0.000000
0.000424 0.000811 0.000000
0.000460 0.000844 0.000000
0.000467 0.000847 0.000000
0.000479 0.000851 0.000000
0.000491 0.000857 0.000000
0.000523 0.000875 0.000000
0.000010 0.000300 0.000000
0.000010 0.000310 0.000000
0.000010 0.000320 0.000000
0.000010 0.000330 0.000000
0.000010 0.000340 0.000000
0.000010 0.000350 0.000000
0.000011 0.000360 0.000000
0.000011 0.000370 0.000000
0.000011 0.000380 0.000000
0.000011 0.000390 0.000000
0.000011 0.000400 0.000000
0.000011 0.000410 0.000000
0.000011 0.000420 0.000000
0.000011 0.000430 0.000000
0.000011 0.000440 0.000000
0.000012 0.000451 0.000000
0.000012 0.000460 0.000000
0.000012 0.000472 0.000000
0.000013 0.000478 0.000000
0.000010 0.000492 0.000000
0.000013 0.000498 0.000000
0.000441 0.000821 0.000000
0.000450 0.000829 0.000000
0.000457 0.000834 0.000000
0.000465 0.000837 0.000000
0.000481 0.000843 0.000000
0.000490 0.000848 0.000000
0.000503 0.000853 0.000000
0.000513 0.000861 0.000000
0.000518 0.000863 0.000000
0.000520 0.000870 0.000000
0.000020 0.000300 0.000000
0.000020 0.000310 0.000000
0.000020 0.000320 0.000000
0.000020 0.000330 0.000000
0.000020 0.000340 0.000000
0.000020 0.000350 0.000000
0.000020 0.000360 0.000000
0.000021 0.000370 0.000000
0.000020 0.000380 0.000000
0.000022 0.000390 0.000000
0.000020 0.000400 0.000000
0.000022 0.000410 0.000000
0.000020 0.000420 0.000000
0.000022 0.000431 0.000000
0.000020 0.000440 0.000000
0.000023 0.000451 0.000000
0.000021 0.000460 0.000000
0.000022 0.000470 0.000000
0.000021 0.000481 0.000000
0.000024 0.000494 0.000000
0.000020 0.000497 0.000000
0.000422 0.000792 0.000000
0.000439 0.000813 0.000000
0.000447 0.000822 0.000000
0.000454 0.000823 0.000000
0.000466 0.000824 0.000000
0.000475 0.000835 0.000000
0.000500 0.000846 0.000000
0.000511 0.000854 0.000000
0.000523 0.000853 0.000000
0.000531 0.000856 0.000000
0.000030 0.000300 0.000000
0.000030 0.000310 0.000000
0.000030 0.000320 0.000000
0.000031 0.000330 0.000000
0.000030 0.000340 0.000000
0.000031 0.000350 0.000000
0.000030 0.000360 0.000000
0.000031 0.000370 0.000000
0.000030 0.000380 0.000000
0.000031 0.000390 0.000000
0.000031 0.000400 0.000000
0.000031 0.000411 0.000000
0.000031 0.000420 0.000000
0.000032 0.000430 0.000000
0.000031 0.000440 0.000000
0.000031 0.000450 0.000000
0.000031 0.000459 0.000000
0.000036 0.000473 0.000000
0.000029 0.000478 0.000000
0.000033 0.000488 0.000000
0.000032 0.000497 0.000000
0.000063 0.000500 0.000000
0.000439 0.000806 0.000000
0.000454 0.000809 0.000000
0.000478 0.000827 0.000000
0.000488 0.000827 0.000000
0.000488 0.000837 0.000000
0.000497 0.000834 0.000000
0.000505 0.000839 0.000000
0.000515 0.000844 0.000000
0.000535 0.000848 0.000000
0.000040 0.000300 0.000000
0.000040 0.000310 0.000000
0.000040 0.000320 0.000000
0.000040 0.000329 0.000000
0.000040 0.000340 0.000000
0.000040 0.000350 0.000000
0.000040 0.000360 0.000000
0.000041 0.000370 0.000000
0.000041 0.000380 0.000000
0.000040 0.000390 0.000000
0.000042 0.000399 0.000000
0.000041 0.000410 0.000000
0.000042 0.000420 0.000000
0.000040 0.000431 0.000000
0.000042 0.000439 0.000000
0.000043 0.000450 0.000000
0.000043 0.000460 0.000000
0.000037 0.000469 0.000000
0.000045 0.000478 0.000000
0.000043 0.000496 0.000000
0.000040 0.000498 0.000000
0.000366 0.000568 0.000000
0.000452 0.000804 0.000000
0.000465 0.000814 0.000000
0.000473 0.000811 0.000000
0.000475 0.000822 0.000000
0.000497 0.000822 0.000000
0.000517 0.000834 0.000000
0.000525 0.000831 0.000000
0.000526 0.000843 0.000000
0.000538 0.000840 0.000000
0.000050 0.000300 0.000000
0.000050 0.000310 0.000000
0.000050 0.000319 0.000000
0.000050 0.000331 0.000000
0.000051 0.000340 0.000000
0.000050 0.000350 0.000000
0.000052 0.000360 0.000000
0.000049 0.000370 0.000000
0.000052 0.000379 0.000000
0.000050 0.000390 0.000000
0.000053 0.000400 0.000000
0.000049 0.000410 0.000000
0.000053 0.000420 0.000000
0.000051 0.000430 0.000000
0.000054 0.000440 0.000000
0.000047 0.000451 0.000000
0.000055 0.000458 0.000000
0.000053 0.000470 0.000000
0.000056 0.000483 0.000000
0.000049 0.000488 0.000000
0.000050 0.000498 0.000000
0.000430 0.000807 0.000000
0.000403 0.000771 0.000000
0.000463 0.000804 0.000000
0.000483 0.000810 0.000000
0.000492 0.000816 0.000000
0.000506 0.000829 0.000000
0.000505 0.000817 0.000000
0.000514 0.000824 0.000000
0.000531 0.000830 0.000000
0.000541 0.000829 0.000000
0.000060 0.000300 0.000000
0.000060 0.000310 0.000000
0.000060 0.000321 0.000000
0.000060 0.000329 0.000000
0.000062 0.000339 0.000000
0.000059 0.000350 0.000000
0.000062 0.000359 0.000000
0.000060 0.000370 0.000000
0.000063 0.000381 0.000000
0.000059 0.000390 0.000000
0.000064 0.000400 0.000000
0.000059 0.000409 0.000000
0.000064 0.000419 0.000000
0.000058 0.000430 0.000000
0.000066 0.000440 0.000000
0.000060 0.000449 0.000000
0.000066 0.000460 0.000000
0.000055 0.000471 0.000000
0.000064 0.000475 0.000000
0.000068 0.000486 0.000000
0.000058 0.000496 0.000000
0.000424 0.000802 0.000000
0.000443 0.000798 0.000000
0.000466 0.000795 0.000000
0.000475 0.000803 0.000000
0.000488 0.000801 0.000000
0.000501 0.000804 0.000000
0.000526 0.000814 0.000000
0.000518 0.000818 0.000000
0.000534 0.000821 0.000000
0.000544 0.000821 0.000000
0.000070 0.000300 0.000000
0.000070 0.000310 0.000000
0.000070 0.000319 0.000000
0.000070 0.000330 0.000000
0.000071 0.000341 0.000000
0.000068 0.000351 0.000000
0.000077 0.000357 0.000000
0.000067 0.000371 0.000000
0.000075 0.000377 0.000000
0.000069 0.000390 0.000000
0.000074 0.000400 0.000000
0.000068 0.000411 0.000000
0.000075 0.000421 0.000000
0.000067 0.000429 0.000000
0.000075 0.000438 0.000000
0.000066 0.000452 0.000000
0.000077 0.000459 0.000000
0.000073 0.000470 0.000000
0.000076 0.000486 0.000000
0.000068 0.000496 0.000000
0.000076 0.000496 0.000000
0.000366 0.000556 0.000000
0.000433 0.000791 0.000000
0.000454 0.000794 0.000000
0.000485 0.000791 0.000000
0.000493 0.000808 0.000000
0.000510 0.000802 0.000000
0.000514 0.000810 0.000000
0.000521 0.000803 0.000000
0.000537 0.000811 0.000000
0.000547 0.000811 0.000000
0.000080 0.000300 0.000000
0.000080 0.000310 0.000000
0.000080 0.000321 0.000000
0.000081 0.000330 0.000000
0.000080 0.000340 0.000000
0.000080 0.000349 0.000000
0.000075 0.000365 0.000000
0.000083 0.000367 0.000000
0.000081 0.000384 0.000000
0.000078 0.000390 0.000000
0.000087 0.000397 0.000000
0.000079 0.000410 0.000000
0.000085 0.000417 0.000000
0.000078 0.000430 0.000000
0.000087 0.000445 0.000000
0.000077 0.000447 0.000000
0.000085 0.000463 0.000000
0.000074 0.000470 0.000000
0.000087 0.000473 0.000000
0.000085 0.000482 0.000000
0.000084 0.000495 0.000000
0.000416 0.000794 0.000000
0.000397 0.000772 0.000000
0.000469 0.000786 0.000000
0.000476 0.000793 0.000000
0.000495 0.000792 0.000000
0.000504 0.000794 0.000000
0.000514 0.000792 0.000000
0.000530 0.000802 0.000000
0.000539 0.000802 0.000000
0.000550 0.000801 0.000000
0.000090 0.000300 0.000000
0.000090 0.000310 0.000000
0.000090 0.000320 0.000000
0.000090 0.000329 0.000000
0.000090 0.000341 0.000000
0.000092 0.000352 0.000000
0.000089 0.000359 0.000000
0.000092 0.000370 0.000000
0.000088 0.000379 0.000000
0.000092 0.000388 0.000000
0.000086 0.000406 0.000000
0.000094 0.000408 0.000000
0.000088 0.000425 0.000000
0.000096 0.000426 0.000000
0.000089 0.000435 0.000000
0.000097 0.000455 0.000000
0.000087 0.000453 0.000000
0.000097 0.000471 0.000000
0.000106 0.000480 0.000000
0.000089 0.000495 0.000000
0.000094 0.000495 0.000000
0.000366 0.000584 0.000000
0.000430 0.000786 0.000000
0.000418 0.000782 0.000000
0.000447 0.000790 0.000000
0.000488 0.000783 0.000000
0.000505 0.000784 0.000000
0.000523 0.000793 0.000000
0.000531 0.000790 0.000000
0.000542 0.000793 0.000000
0.000552 0.000792 0.000000
0.000100 0.000300 0.000000
0.000100 0.000310 0.000000
0.000100 0.000320 0.000000
0.000101 0.000331 0.000000
0.000100 0.000339 0.000000
0.000099 0.000349 0.000000
0.000101 0.000360 0.000000
0.000100 0.000372 0.000000
0.000101 0.000380 0.000000
0.000101 0.000392 0.000000
0.000099 0.000399 0.000000
0.000104 0.000409 0.000000
0.000100 0.000418 0.000000
0.000100 0.000435 0.000000
0.000109 0.000443 0.000000
0.000096 0.000445 0.000000
0.000107 0.000460 0.000000
0.000098 0.000466 0.000000
0.000094 0.000481 0.000000
0.000106 0.000491 0.000000
0.000101 0.000494 0.000000
0.000379 0.000729 0.000000
0.000382 0.000737 0.000000
0.000394 0.000765 0.000000
0.000480 0.000779 0.000000
0.000496 0.000778 0.000000
0.000509 0.000779 0.000000
0.000523 0.000784 0.000000
0.000523 0.000775 0.000000
0.000542 0.000785 0.000000
0.000554 0.000782 0.000000
0.000110 0.000300 0.000000
0.000110 0.000310 0.000000
0.000110 0.000320 0.000000
0.000110 0.000330 0.000000
0.000110 0.000340 0.000000
0.000110 0.000351 0.000000
0.000112 0.000361 0.000000
0.000110 0.000368 0.000000
0.000112 0.000379 0.000000
0.000109 0.000389 0.000000
0.000112 0.000399 0.000000
0.000110 0.000412 0.000000
0.000116 0.000422 0.000000
0.000107 0.000427 0.000000
0.000112 0.000434 0.000000
0.000107 0.000449 0.000000
0.000115 0.000461 0.000000
0.000111 0.000471 0.000000
0.000116 0.000480 0.000000
0.000111 0.000493 0.000000
0.000119 0.000492 0.000000
0.000367 0.000658 0.000000
0.000366 0.000606 0.000000
0.000427 0.000777 0.000000
0.000454 0.000782 0.000000
0.000449 0.000774 0.000000
[...]
POINT_DATA 6231
SCALARS density float 1
LOOKUP_TABLE default
4407.238317
4424.489159
4422.233506
4423.084592
4425.583936
4426.580979
4425.763811
4427.062452
4430.372537
4429.186667
4426.480593
4431.464735
4429.261676
4429.975837
4430.846379
4440.339060
4423.181129
4432.341712
4412.641714
4423.647991
4411.207629
4430.078899
4423.847152
4429.153828
4439.905283
4423.798891
4407.283843
4440.078207
4439.369759
4449.144317
4418.691300
4411.259978
4425.936033
4423.869092
4421.395365
4423.337048
4427.880977
4425.557844
4420.569964
4426.574710
4428.355354
4423.835826
4431.689481
4425.085109
4437.363638
4416.162800
4428.217082
4409.975368
4443.473880
4460.963157
4460.394006
4415.964985
4396.117657
4384.161973
4415.814559
4479.867985
4395.229178
4409.890316
4419.117874
4420.499664
4443.617593
4463.559224
4417.358657
4430.767059
4418.978663
4433.383833
4428.816707
4417.216164
4430.980516
4439.375866
4421.700119
4431.903487
4430.096634
4434.301748
4416.652961
4440.692537
4415.836039
4475.731213
4399.988691
4454.205401
4352.215274
4449.772498
4420.584347
4416.572866
4417.850288
4406.869767
4547.813525
4363.149322
4385.031888
4450.702287
4402.898140
4417.020294
4402.837984
4422.724007
4425.065534
4425.576759
4424.397981
4427.191236
4439.565382
4424.040382
4423.489533
4419.660813
4438.195467
4408.797842
4437.651264
4420.805431
4444.791182
4403.003789
4431.264832
4391.067695
4457.858671
4370.278272
4556.017878
4370.577903
4431.595387
4453.260412
4462.584367
4469.811697
4376.281044
4484.961351
4424.209790
4404.026683
4515.342868
4450.616401
4428.895959
4431.091752
4436.667716
4437.814455
4423.867524
4432.813890
4419.829832
4441.180087
4423.839753
4436.581113
4414.171840
4449.367096
4401.499799
4443.695479
4415.446133
4449.142460
4386.899433
4508.021393
4309.132179
4419.988649
4383.879066
4474.795605
4416.141199
4358.915407
4484.471220
4473.161142
4443.636377
4378.681709
4428.018838
4395.327095
4426.107190
4437.951556
4429.095002
4413.308981
4435.532321
4425.347957
4435.667751
4409.618118
4442.844104
4407.230516
4439.982603
4415.077374
4440.070182
4402.219268
4461.015775
4360.123791
4481.578389
4355.941831
4479.220143
4361.871024
4537.135573
4383.111006
4444.593260
4423.641949
4448.791614
4370.266451
4442.210790
4443.059458
4383.837902
4444.083128
4437.519600
4413.313853
4424.650888
4434.511908
4436.753325
4447.814514
4413.652638
4455.309608
4402.916199
4442.886484
4415.428747
4451.769591
4412.879150
4443.409590
4422.603206
4438.941828
4419.896844
4473.697783
4401.115974
4517.623587
4372.511889
4481.816902
4431.788855
4420.516075
4402.410078
4432.302417
4446.412109
4421.832319
4414.286026
4403.474353
4428.901226
4446.383785
4427.776553
4423.950854
4433.046416
4422.396637
4416.273194
4443.178681
4425.727634
4424.889479
4453.210664
4403.068682
4441.156226
4394.854250
4430.784752
4411.627076
4438.444352
4441.648957
4460.731379
4437.745601
4461.780073
4447.443609
4412.545822
4388.173887
4644.674199
4442.792590
4426.266417
4472.645141
4464.682183
4428.770107
4450.037340
4441.180505
4441.191760
4412.735089
4428.261287
4427.141660
4418.482966
4437.890160
4428.988888
4424.836783
4437.152445
4422.151550
4455.488642
4434.486549
4408.918513
4436.077999
4411.885893
4440.226503
4465.064117
4392.076179
4453.767752
4451.966892
4359.128675
4466.554085
4412.239435
4430.633682
4412.466795
4422.999856
4420.736473
4413.240202
4437.992670
4381.827028
4428.937534
4430.373778
4441.061141
4424.727246
4434.677163
4433.746647
4429.179425
4403.603980
4441.467917
4422.831865
4434.111827
4420.440891
4415.961794
4457.695490
4397.446708
4427.590900
4463.038691
4415.837852
4376.587808
4441.471110
4434.539346
4425.317336
4426.211150
4415.673318
4592.088128
4446.677651
4426.055773
4470.211470
4425.602481
4445.899469
4472.198279
4417.042323
4414.697814
4418.933984
4433.723271
4432.271283
4414.209354
4430.613635
4437.794639
4444.087234
4404.005957
4439.754809
4418.902843
4438.954562
4444.816072
4440.367465
4430.805320
4391.874284
4444.164862
4450.542412
4417.186170
4472.026716
4415.422282
4438.160284
4420.252205
4429.811827
4432.721253
4419.496370
4413.867762
4404.445451
4462.179960
4407.971839
4492.281788
4458.671078
4410.932640
4429.927577
4423.695842
4437.507340
4439.297764
4406.578741
4418.958556
4445.785053
4436.318007
4419.013420
4441.372848
4396.809636
4445.504726
4395.941141
4432.350898
4433.510453
4445.746259
4462.881227
4390.168980
4466.905789
4399.227869
4411.809311
4430.090570
4490.338005
4432.058862
4405.635525
4437.409530
4466.129802
4414.673771
4412.053989
4427.136062
4446.372758
4431.538405
4425.998313
4433.097671
4412.695120
4440.377199
4442.411277
4411.740742
4419.106516
4437.303660
4437.659972
4431.892555
4435.209280
4432.181949
4435.025839
4414.871902
4373.875635
4437.282625
4394.880458
4421.173584
4438.573527
4393.756189
4436.924452
4409.345316
4427.356303
4458.922647
4440.114557
4368.891819
4384.536436
4435.803998
4402.191207
4416.804930
4430.968412
4433.955262
4423.356677
4429.658986
4436.981174
4410.045278
4427.931904
4439.565977
4427.013440
4402.756309
4430.647486
4428.188316
4434.637689
4428.684794
4411.406242
4449.725000
4423.018821
4441.007539
4496.012993
4420.556735
4426.678029
4434.275044
4413.262296
4421.622923
4421.248813
4427.618421
4442.479541
4465.384237
4460.648493
4469.434679
4436.163272
4430.330860
4436.506461
4434.343496
4425.121150
4405.425074
4440.282092
4444.256534
4404.778355
4441.267110
4423.638713
4443.237437
4401.834213
4438.809143
4409.032905
4440.611828
4379.804670
4408.676414
4503.671074
4571.619185
4387.794965
4372.813329
4409.724773
4410.642794
4448.741613
4450.433098
4393.423950
4452.579462
4452.885746
4401.531477
4407.520018
4438.733153
4430.104407
4436.195949
4417.546671
4440.110593
4438.160736
4407.804165
4413.149052
4438.806517
4431.310018
4398.242993
4445.938852
4411.355598
4447.647705
4388.971540
4463.220325
4416.440040
4485.070865
4352.557032
4326.560657
4507.857216
4394.006756
4418.115337
4428.323013
4436.221459
4476.130293
4473.309027
4417.847532
4407.899290
4433.239656
4419.694718
4412.540453
4428.328235
4440.624298
4428.082013
4417.803724
4433.625446
4430.192814
4439.154379
4415.077595
4423.910046
4444.418031
4423.520543
4398.307170
4444.631859
4421.326450
4433.558667
4411.919161
4416.134945
4498.805644
4490.047791
4422.745143
4403.689606
4426.961238
4441.605727
4429.595716
4388.638742
4434.669641
4437.522533
4411.925541
4418.301985
4445.072005
4422.016265
4434.087733
4423.856407
4430.534995
4444.758592
4416.107314
4436.471594
4421.504077
4427.525673
4431.253742
4408.914186
4429.883413
4453.764902
4424.133416
4439.410859
4393.548922
4453.818400
4405.056913
4469.557321
4330.441319
4358.803097
4432.016848
4422.155161
4430.021284
4385.706447
4394.002650
4457.625029
4417.138550
4443.701619
4455.199689
4407.355666
4423.289272
4434.695077
4430.703344
4426.250815
4436.978793
4423.497610
4436.864244
4416.223378
4441.389991
4420.841960
4451.615104
4410.542203
4412.506696
4408.356882
4447.566796
4407.278184
4450.760669
4326.080086
4477.079579
4390.851780
4450.562878
4400.827068
4421.194951
4411.438019
4431.961762
4465.269317
4386.013681
4472.089303
4448.931439
4413.763889
4391.522833
4425.040737
4429.615504
4429.987618
4429.067604
4422.981508
4428.472540
4430.901160
4422.614391
4436.933175
4399.045773
4438.881021
4408.059183
4459.965156
4407.029289
4442.238088
4387.898048
4450.015507
4461.199284
4491.430118
4428.568900
4555.365998
4390.525174
4468.519997
4451.524865
4429.946367
4454.424212
4429.595527
4401.008398
4402.498470
4407.163731
4488.783850
4390.490484
4427.133989
4423.012243
4429.080614
4432.909493
4428.853443
4429.997237
4424.839998
4426.357629
4433.107651
4437.589893
4395.551181
4447.433783
4378.025715
4451.717524
4431.159359
4410.132984
4404.651132
4471.638786
4360.505014
4393.097177
4577.801821
4457.458279
4427.290315
4447.110756
4417.489655
4385.903791
4415.454812
4428.594186
4458.138065
4393.778689
4375.982655
4422.668088
4438.372843
4434.681958
4416.791057
4418.224471
4427.161269
4428.578674
4423.730703
4411.453425
4429.649763
4445.666619
4406.274254
4458.389765
4411.756372
4422.101950
4471.843276
4388.058963
4477.504485
4404.655079
4476.685599
4413.415101
4442.994890
4402.209726
4412.874607
4407.813967
4435.486135
4445.286146
4436.727117
4355.867835
4398.288565
4458.250272
4428.289758
4428.272126
4410.873093
4441.701958
4439.376328
4408.666619
4414.999972
4440.481407
4438.897313
4406.356512
4442.054535
4402.252334
4451.519204
4445.160803
4409.281039
4419.224603
4401.484298
4451.426321
4388.122261
4450.239879
4472.597760
4431.719016
4427.741731
4456.625746
4457.538465
4438.923575
4488.523568
4380.424759
4501.681174
4395.188341
4435.851350
4426.843450
4430.818021
4435.538949
4431.916355
4407.590085
4437.237191
4438.206943
4390.080420
4439.997519
4428.551657
4404.781099
4481.853817
4384.019746
4444.164571
4416.804659
4417.593295
4439.640009
4430.324816
4425.788007
4409.897704
4419.067319
4394.756370
4443.505570
4379.192786
4434.928549
4423.081776
4380.353842
4367.312909
4494.056542
4422.797725
4435.829459
4427.602863
4423.386416
4423.438294
4416.040608
4441.651369
4424.475162
4415.711689
4449.595748
4406.910593
4435.447762
4399.039015
4446.543301
4370.607390
4424.396223
4377.950816
4454.293349
4387.372503
4407.858436
4442.881993
4511.930185
4422.283600
4402.863877
4481.173797
4431.375718
4479.189536
4454.127450
4471.625227
4402.575327
4452.055223
4436.467449
4461.221728
4429.170832
4422.991494
4431.772150
4436.463660
4425.105286
4420.591837
4409.015592
4440.797558
4396.049115
4437.822459
4429.384634
4423.218322
4445.514772
4419.096498
4451.992086
4464.395514
4391.514075
4499.146907
4382.908908
4420.012673
4429.908841
4409.217759
4517.213348
4422.105709
4423.642871
4440.953993
4439.050502
4438.394734
4431.233058
4418.201123
4417.432677
4420.585514
4440.651815
4426.312102
4420.907963
4408.784871
4447.212341
4434.197190
4412.685497
4432.599568
4404.919652
4403.911128
4432.505495
4439.764459
4391.683374
4394.555232
4418.411962
4419.718602
4401.100162
4376.747416
4483.620829
4473.650809
4652.346381
4421.212997
4425.415264
4441.150098
4404.838270
4459.915234
4424.215894
4465.779339
4395.747263
4428.122009
4432.144567
4436.256581
4407.473645
4439.775181
4449.026497
4406.895012
4415.487581
4420.722869
4423.047962
4424.726445
4438.602739
4420.507202
4408.098783
4447.238561
4442.182632
4428.073056
4438.887147
4423.136246
4440.883499
4427.698580
4420.111767
4419.736673
4408.778900
4411.411333
4441.982250
4452.147304
4446.595248
4421.015750
4452.322211
4378.685643
4426.541279
4428.456806
4422.719980
4441.003674
4433.391348
4408.439369
4439.454512
4437.499823
4423.340815
4416.561117
4410.851364
4422.881011
4411.837129
4447.481828
4412.425829
4399.241592
4395.743026
4452.772142
4410.168578
4414.596129
4430.490275
4410.290243
4425.469924
4410.811574
4385.121046
4444.943427
4457.122860
4405.245616
4456.611683
4410.044606
4448.228343
4409.419446
4423.369918
4421.475756
4431.766317
4412.726245
4436.381542
4442.489486
4400.550003
4416.541662
4435.635142
4414.900680
4435.098479
4411.119261
4422.736571
4379.862142
4486.996283
4443.168642
4476.217591
4395.302448
4369.776685
4483.109446
4440.820367
4408.826070
4487.194648
4463.355228
4512.993061
4452.908479
4430.740329
4435.942333
4417.042316
4438.166903
4455.407153
4428.881088
4434.419461
4422.784365
4434.311666
4441.934109
4394.493564
4446.822974
4439.788129
4411.200720
4404.272241
4432.497930
4391.985309
4461.604387
4436.136812
4400.590851
4384.432553
4411.263120
4457.961798
4453.298405
4438.641654
4451.085420
4377.610829
4444.469820
4456.078222
4416.619083
4446.762471
4423.834430
4422.549207
4403.608935
4432.817105
4394.769587
4428.054748
4425.299234
4433.659460
4427.898983
4414.726672
4433.652548
4441.980769
4381.051675
4453.721796
4424.536831
4417.266598
4451.994679
4391.784564
4413.649642
4407.708382
4454.245414
4429.585989
4455.959819
4366.328746
4377.835801
4434.219393
4462.724078
4383.633718
4473.890044
4439.156397
4407.697209
4444.104423
4418.017765
4456.616555
4337.180945
4440.678931
4432.587385
4428.884764
4426.392365
4423.562332
4435.215487
4433.534349
4402.592783
4445.684936
4420.505215
4415.976398
4417.906030
4415.769882
4416.110236
4446.325659
4398.686242
4443.502435
4396.843039
4391.388751
4447.334451
4475.460940
4441.550149
4367.136124
4435.951491
4450.010185
4430.426302
4485.206707
4439.423047
4427.215062
4453.218427
4447.316004
4404.754220
4437.974299
4427.576902
4436.712233
4428.484056
4422.679358
4414.068785
4407.534386
4464.078298
4378.496089
4447.865729
4429.263582
4424.501771
4443.448252
4409.631471
4415.141556
4433.846678
4412.528606
4476.162967
4378.011267
4465.314165
4459.838797
4532.679057
4480.613184
4431.358919
4458.354734
4418.591987
4426.178857
4393.885605
4367.828597
4379.362247
4428.567503
4429.275417
4422.826389
4429.648138
4425.911366
4426.255723
4443.509502
4421.842511
4395.462967
4441.709399
4437.762147
4382.047842
4434.578815
4389.682666
4442.842001
4426.578271
4420.827250
4411.595209
4425.186359
4387.052791
4401.829124
4575.605627
4329.198929
4459.792001
4465.614022
4441.095879
4441.170294
4438.081036
4452.294453
4427.541786
4486.314834
4449.406513
4424.193061
4436.874920
4436.825405
4430.633602
4433.416568
4403.685379
4435.886435
4417.005709
4431.468182
4404.965872
4426.553319
4440.887486
4406.898296
4438.434870
4388.083416
4454.104729
4401.357840
4462.934402
4390.956068
4564.230639
4525.548838
4404.046642
4421.200688
4436.596679
4479.217250
4474.807768
4453.447362
4435.488782
4408.234717
4431.463888
4439.339878
4423.503569
4433.490831
4411.739286
4434.859648
4426.931035
4444.036349
4418.766777
4398.855057
4394.554268
4447.538363
4426.396319
4391.478792
4435.298197
4416.387547
4433.908563
4425.888413
4434.666673
4401.396929
4481.483140
4443.986395
4466.413583
4515.829777
4467.979775
4475.336810
4452.755683
4422.943008
4434.741834
4420.618738
4438.644280
4420.459000
4419.882352
4426.708116
4429.803170
4435.193091
4430.991029
4414.272583
4399.484165
4439.611445
4437.977158
4458.015756
4396.192121
4410.980673
4435.948996
4447.230971
4425.299043
4424.115098
4413.805370
4433.829798
4435.264100
4434.289957
4452.106950
4456.871148
4472.004563
4405.506114
4436.303893
4473.624112
4452.980167
4456.911322
4419.561358
4465.766191
4445.308900
4409.104845
4427.190364
4423.813437
4412.579801
4413.131493
4459.038001
4417.863609
4395.393750
4449.805377
4395.463829
4443.209042
4428.032621
4404.964602
4387.991383
4449.799010
4449.470366
4422.652914
4420.210710
4415.877745
4428.059762
4454.524829
4453.881248
4431.419779
4492.145084
4435.906772
4418.684531
4459.149700
4452.944756
4467.599641
4424.764925
4424.889660
4403.545820
4421.396882
4419.375259
4445.904788
4434.500444
4431.146983
4406.497454
4433.653196
4435.726346
4416.897814
4452.037726
4399.365270
4416.878481
4437.263847
4414.157459
4427.825048
4434.110328
4414.572263
4441.482688
4426.644787
4418.436340
4447.627626
4419.490211
4462.289795
4464.465457
4455.192013
4425.966337
4423.764725
4389.068403
4453.767160
4442.391008
4410.688358
4418.260553
4433.351196
4405.051220
4406.975053
4426.229479
4413.419895
4408.477467
4407.907408
4445.553849
4391.608789
4442.593851
4416.801612
4402.055735
4419.156221
4426.257787
4418.386678
4430.971491
4419.587383
4443.350544
4454.174324
4446.263703
4454.491352
4470.045240
4430.010294
4447.526881
4462.367618
4418.866990
4432.500450
4491.129215
4443.632428
4411.141397
4421.256487
4438.977428
4420.714952
4441.686202
4447.583810
4456.434116
4421.081368
4437.304743
4418.120682
4420.973993
4439.419876
4409.887829
4404.096559
4413.738574
4412.553558
4438.496508
4441.880952
4437.493153
4415.887926
4434.003034
4434.542946
4427.817734
4459.916531
4444.085112
4446.284003
4455.463744
4439.010835
4403.876587
4503.500397
4377.984468
4414.028473
4426.083575
4427.215728
4408.746209
4420.609213
4384.901967
4453.438997
4410.218229
4436.802136
4393.890040
4434.887350
4381.414594
4427.277375
4435.736033
4438.999692
4411.278883
4437.862825
4412.436447
4428.142646
4435.210587
4439.267066
4454.609131
4437.548343
4438.677748
4449.967204
4437.736836
4455.313866
4440.942416
4460.680089
4460.065176
4365.589977
4425.789794
4422.427796
4418.205708
4435.754077
4444.303561
4416.854818
4441.183845
4406.886122
4467.768210
4391.665165
4456.134657
4391.818456
4456.816098
4380.290137
4438.476396
4426.417634
4410.868057
4425.765406
4426.911398
4449.503794
4429.649304
4416.874900
4438.469544
4429.497682
4446.158007
4430.045255
4441.275114
4419.460088
4445.663721
4450.525725
4402.438243
4416.502256
4419.167344
4421.830278
4428.085763
4384.268656
4427.172426
4412.995889
4429.217349
4426.796601
4447.975750
4426.840513
4444.941387
4397.165263
4423.119298
4464.779235
4417.857757
4422.283897
4437.309453
4438.549733
4418.011446
4431.293904
4440.397279
4451.715642
4397.262757
4450.203742
4419.995754
4470.794377
4436.243029
4439.087249
4456.175253
4457.128776
4408.628497
4423.096256
4429.988586
4427.460229
4422.130622
4455.574964
4419.135165
4445.068267
4414.551125
4395.062802
4431.028506
4456.721296
4447.504259
4410.272822
4382.768818
4408.524534
4461.385323
4426.605430
4425.812122
4419.411543
4399.574913
4441.099573
4445.221033
4446.840123
4465.920717
4418.919340
4455.031916
4443.775425
4446.389391
4400.232587
4455.559121
4547.455103
4424.732583
4425.868037
4419.464952
4415.258397
4396.688024
4444.296869
4427.912359
4420.150420
4413.512055
4452.569035
4382.396840
4385.194089
4453.063142
4460.194194
4410.594316
4436.195497
4426.250567
4413.358363
4444.050107
4434.438057
4421.222592
4443.046971
4427.460631
4429.366896
4469.839001
4424.283412
4440.463480
4417.841643
4460.034707
4457.953918
4416.410514
4429.156864
4430.099680
4439.416737
4439.066806
4430.729507
4424.782149
4416.597438
4415.763172
4452.871605
4419.265161
4458.791205
4444.764242
4381.290285
4412.104109
4439.512609
4410.987312
4430.800166
4446.973266
4425.748880
4428.984646
4440.044131
4441.000690
4460.403220
4425.345437
4440.211961
4443.419827
4455.051230
4468.998255
4421.387698
4444.623713
4417.809521
4436.883110
4428.178029
4427.421195
4411.879190
4426.679873
4416.151300
4423.733989
4443.265711
4418.285372
4410.428347
4428.031839
4402.228385
4455.935751
4446.106633
4382.410455
4438.788838
4423.409364
4422.649333
4452.135270
4432.869730
4411.717394
4412.021062
4435.242477
4444.269857
4437.159056
4424.349542
4439.897565
4449.038987
4497.956284
4444.510767
4484.286478
4435.622763
4423.819485
4441.945687
4444.383865
4433.268502
4442.455254
4436.765779
4405.476417
4440.058035
4424.066876
4436.438906
4424.665022
4405.700838
4421.102889
4454.143058
4428.606644
4425.340031
4438.522055
4415.326186
4412.307032
4454.758474
4429.195320
4426.951563
4431.750716
4453.204528
4438.256544
4452.494265
4439.661444
4450.054695
4455.986965
4469.801167
4427.590243
4434.714480
4429.689624
4406.305405
4427.305231
4396.527285
4410.805996
4436.026704
4428.787177
4440.524211
4416.720695
4448.217602
4430.391476
4428.588203
4449.365371
4391.596378
4432.909015
4437.620774
4430.956147
4407.415382
4440.884069
4423.241740
4448.406343
4429.608496
4438.335255
4436.870276
4454.192895
4459.899781
4483.123459
4428.683202
4458.355884
4431.632774
4427.645211
4432.943084
4420.641769
4449.555055
4418.896603
4444.563098
4414.742450
4401.535250
4477.528251
4392.738818
4446.326967
4432.371623
4404.482168
4396.089216
4455.962884
4441.764212
4412.634710
4439.386946
4438.255713
4422.610334
4461.915263
4432.305709
4421.845548
4456.621125
4444.832580
4452.100447
4455.582114
4449.774846
4466.200842
4459.211168
4438.503725
4426.084010
4431.318658
4450.349494
4405.528764
4450.069011
4438.500354
4439.233198
4409.426180
4397.268225
4414.770610
4406.694207
4446.498384
4451.062623
4441.026561
4422.675425
4410.296025
4433.097340
4421.906305
4425.778190
4438.918491
4437.036629
4438.063486
4443.899358
4443.237706
4435.403521
4443.349589
4451.045466
4462.916047
4457.533264
4455.910650
4437.420663
4426.648781
4417.699600
4420.051707
4433.424194
4448.117373
4407.176277
4428.967694
4439.556541
4448.461479
4448.175729
4447.656838
4424.885846
4452.707493
4402.511607
4444.856048
4455.214912
4440.008976