# vtk DataFile Version 2.0
mfree iwf
ASCII

DATASET UNSTRUCTURED_GRID
POINTS 6231 float
0.000000 0.000300 0.000000
0.000000 0.000310 0.000000
0.000000 0.000320 0.000000
0.000000 0.000330 0.000000
0.000000 0.000340 0.000000
0.000000 0.000350 0.000000
0.000001 0.000360 0.000000
0.000001 0.000370 0.000000
0.000001 0.000380 0.000000
0.000001 0.000390 0.000000
0.000001 0.000400 0.000000
0.000001 0.000410 0.000000
0.000001 0.000420 0.000000
0.000001 0.000430 0.000000
0.000001 0.000440 0.000000
0.000002 0.000450 0.000000
0.000002 0.000460 0.000000
0.000002 0.000471 0.000000
0.000002 0.000480 0.000000
0.000002 0.000492 0.000000
0.000006 0.000501 0.000000
0.000616 0.000854 0.000000
0.000679 0.000905 0.000000
0.000630 0.000865 0.000000
0.000690 0.000912 0.000000
0.000711 0.000922 0.000000
0.000758 0.000936 0.000000
0.000766 0.000936 0.000000
0.000779 0.000933 0.000000
0.000792 0.000933 0.000000
0.000824 0.000939 0.000000
0.000010 0.000300 0.000000
0.000010 0.000310 0.000000
0.000010 0.000320 0.000000
0.000010 0.000330 0.000000
0.000010 0.000340 0.000000
0.000010 0.000350 0.000000
0.000011 0.000360 0.000000
0.000011 0.000370 0.000000
0.000011 0.000380 0.000000
0.000011 0.000390 0.000000
0.000011 0.000400 0.000000
0.000011 0.000410 0.000000
0.000011 0.000420 0.000000
0.000011 0.000430 0.000000
0.000011 0.000440 0.000000
0.000012 0.000450 0.000000
0.000012 0.000460 0.000000
0.000012 0.000472 0.000000
0.000013 0.000478 0.000000
0.000009 0.000492 0.000000
0.000013 0.000498 0.000000
0.000730 0.000923 0.000000
0.000744 0.000926 0.000000
0.000752 0.000929 0.000000
0.000759 0.000927 0.000000
0.000776 0.000925 0.000000
0.000787 0.000926 0.000000
0.000802 0.000925 0.000000
0.000812 0.000928 0.000000
0.000819 0.000927 0.000000
0.000821 0.000935 0.000000
0.000020 0.000300 0.000000
0.000020 0.000310 0.000000
0.000020 0.000320 0.000000
0.000020 0.000330 0.000000
0.000021 0.000340 0.000000
0.000020 0.000350 0.000000
0.000021 0.000360 0.000000
0.000021 0.000370 0.000000
0.000021 0.000380 0.000000
0.000021 0.000390 0.000000
0.000021 0.000400 0.000000
0.000022 0.000410 0.000000
0.000021 0.000420 0.000000
0.000022 0.000431 0.000000
0.000020 0.000440 0.000000
0.000024 0.000451 0.000000
0.000021 0.000460 0.000000
0.000022 0.000470 0.000000
0.000021 0.000481 0.000000
0.000024 0.000494 0.000000
0.000020 0.000497 0.000000
0.000700 0.000905 0.000000
0.000727 0.000917 0.000000
0.000737 0.000921 0.000000
0.000742 0.000919 0.000000
0.000753 0.000915 0.000000
0.000767 0.000921 0.000000
0.000794 0.000920 0.000000
0.000809 0.000922 0.000000
0.000818 0.000915 0.000000
0.000826 0.000914 0.000000
0.000030 0.000300 0.000000
0.000030 0.000310 0.000000
0.000030 0.000320 0.000000
0.000031 0.000330 0.000000
0.000030 0.000340 0.000000
0.000030 0.000349 0.000000
0.000031 0.000360 0.000000
0.000030 0.000370 0.000000
0.000032 0.000380 0.000000
0.000030 0.000390 0.000000
0.000031 0.000400 0.000000
0.000031 0.000411 0.000000
0.000031 0.000420 0.000000
0.000031 0.000430 0.000000
0.000032 0.000440 0.000000
0.000030 0.000450 0.000000
0.000032 0.000459 0.000000
0.000036 0.000473 0.000000
0.000030 0.000478 0.000000
0.000033 0.000488 0.000000
0.000032 0.000497 0.000000
0.000063 0.000500 0.000000
0.000721 0.000911 0.000000
0.000738 0.000906 0.000000
0.000765 0.000912 0.000000
0.000774 0.000906 0.000000
0.000779 0.000918 0.000000
0.000785 0.000912 0.000000
0.000795 0.000911 0.000000
0.000803 0.000911 0.000000
0.000826 0.000906 0.000000
0.000040 0.000300 0.000000
0.000040 0.000310 0.000000
0.000041 0.000320 0.000000
0.000040 0.000329 0.000000
0.000040 0.000340 0.000000
0.000041 0.000351 0.000000
0.000040 0.000360 0.000000
0.000041 0.000370 0.000000
0.000041 0.000380 0.000000
0.000040 0.000390 0.000000
0.000043 0.000399 0.000000
0.000040 0.000410 0.000000
0.000043 0.000420 0.000000
0.000040 0.000431 0.000000
0.000043 0.000439 0.000000
0.000043 0.000450 0.000000
0.000043 0.000460 0.000000
0.000036 0.000469 0.000000
0.000045 0.000477 0.000000
0.000043 0.000496 0.000000
0.000040 0.000498 0.000000
0.000549 0.000692 0.000000
0.000730 0.000903 0.000000
0.000748 0.000906 0.000000
0.000756 0.000902 0.000000
0.000763 0.000909 0.000000
0.000785 0.000902 0.000000
0.000807 0.000902 0.000000
0.000808 0.000892 0.000000
0.000816 0.000906 0.000000
0.000825 0.000897 0.000000
0.000050 0.000300 0.000000
0.000050 0.000310 0.000000
0.000050 0.000320 0.000000
0.000049 0.000331 0.000000
0.000052 0.000340 0.000000
0.000050 0.000348 0.000000
0.000051 0.000360 0.000000
0.000050 0.000371 0.000000
0.000052 0.000380 0.000000
0.000050 0.000390 0.000000
0.000052 0.000400 0.000000
0.000049 0.000411 0.000000
0.000053 0.000420 0.000000
0.000051 0.000430 0.000000
0.000053 0.000440 0.000000
0.000047 0.000451 0.000000
0.000054 0.000458 0.000000
0.000053 0.000469 0.000000
0.000056 0.000483 0.000000
0.000049 0.000488 0.000000
0.000050 0.000498 0.000000
0.000716 0.000916 0.000000
0.000676 0.000895 0.000000
0.000743 0.000900 0.000000
0.000761 0.000891 0.000000
0.000774 0.000896 0.000000
0.000790 0.000898 0.000000
0.000783 0.000890 0.000000
0.000799 0.000898 0.000000
0.000815 0.000894 0.000000
0.000824 0.000886 0.000000
0.000060 0.000300 0.000000
0.000060 0.000310 0.000000
0.000060 0.000321 0.000000
0.000061 0.000329 0.000000
0.000060 0.000340 0.000000
0.000059 0.000351 0.000000
0.000063 0.000361 0.000000
0.000059 0.000368 0.000000
0.000062 0.000381 0.000000
0.000059 0.000390 0.000000
0.000063 0.000400 0.000000
0.000061 0.000409 0.000000
0.000063 0.000419 0.000000
0.000058 0.000431 0.000000
0.000065 0.000439 0.000000
0.000061 0.000450 0.000000
0.000065 0.000460 0.000000
0.000055 0.000472 0.000000
0.000065 0.000475 0.000000
0.000068 0.000486 0.000000
0.000058 0.000496 0.000000
0.000706 0.000913 0.000000
0.000721 0.000902 0.000000
0.000739 0.000888 0.000000
0.000752 0.000891 0.000000
0.000769 0.000884 0.000000
0.000776 0.000879 0.000000
0.000804 0.000881 0.000000
0.000795 0.000886 0.000000
0.000813 0.000882 0.000000
0.000823 0.000877 0.000000
0.000070 0.000300 0.000000
0.000070 0.000310 0.000000
0.000070 0.000319 0.000000
0.000070 0.000331 0.000000
0.000071 0.000339 0.000000
0.000071 0.000350 0.000000
0.000071 0.000357 0.000000
0.000067 0.000373 0.000000
0.000075 0.000376 0.000000
0.000070 0.000390 0.000000
0.000072 0.000400 0.000000
0.000069 0.000412 0.000000
0.000074 0.000421 0.000000
0.000069 0.000429 0.000000
0.000075 0.000439 0.000000
0.000066 0.000452 0.000000
0.000077 0.000458 0.000000
0.000073 0.000470 0.000000
0.000076 0.000486 0.000000
0.000068 0.000495 0.000000
0.000076 0.000496 0.000000
0.000546 0.000666 0.000000
0.000710 0.000900 0.000000
0.000732 0.000893 0.000000
0.000754 0.000874 0.000000
0.000769 0.000893 0.000000
0.000785 0.000879 0.000000
0.000794 0.000881 0.000000
0.000793 0.000868 0.000000
0.000811 0.000872 0.000000
0.000821 0.000867 0.000000
0.000080 0.000300 0.000000
0.000080 0.000310 0.000000
0.000080 0.000320 0.000000
0.000080 0.000330 0.000000
0.000080 0.000341 0.000000
0.000082 0.000352 0.000000
0.000078 0.000362 0.000000
0.000082 0.000370 0.000000
0.000079 0.000383 0.000000
0.000079 0.000392 0.000000
0.000088 0.000396 0.000000
0.000079 0.000408 0.000000
0.000084 0.000417 0.000000
0.000079 0.000430 0.000000
0.000087 0.000444 0.000000
0.000077 0.000447 0.000000
0.000086 0.000463 0.000000
0.000074 0.000470 0.000000
0.000087 0.000473 0.000000
0.000085 0.000482 0.000000
0.000084 0.000495 0.000000
0.000697 0.000910 0.000000
0.000670 0.000899 0.000000
0.000740 0.000876 0.000000
0.000750 0.000886 0.000000
0.000764 0.000876 0.000000
0.000771 0.000867 0.000000
0.000781 0.000869 0.000000
0.000802 0.000868 0.000000
0.000810 0.000863 0.000000
0.000819 0.000857 0.000000
0.000090 0.000300 0.000000
0.000090 0.000310 0.000000
0.000089 0.000320 0.000000
0.000091 0.000329 0.000000
0.000091 0.000340 0.000000
0.000089 0.000348 0.000000
0.000091 0.000359 0.000000
0.000090 0.000368 0.000000
0.000091 0.000379 0.000000
0.000091 0.000388 0.000000
0.000085 0.000406 0.000000
0.000094 0.000409 0.000000
0.000089 0.000425 0.000000
0.000096 0.000426 0.000000
0.000088 0.000436 0.000000
0.000097 0.000455 0.000000
0.000086 0.000454 0.000000
0.000097 0.000471 0.000000
0.000106 0.000480 0.000000
0.000089 0.000494 0.000000
0.000094 0.000495 0.000000
0.000553 0.000710 0.000000
0.000705 0.000895 0.000000
0.000692 0.000899 0.000000
0.000723 0.000893 0.000000
0.000753 0.000864 0.000000
0.000777 0.000859 0.000000
0.000790 0.000862 0.000000
0.000798 0.000857 0.000000
0.000808 0.000853 0.000000
0.000817 0.000847 0.000000
0.000100 0.000300 0.000000
0.000100 0.000310 0.000000
0.000101 0.000320 0.000000
0.000099 0.000331 0.000000
0.000101 0.000341 0.000000
0.000099 0.000351 0.000000
0.000102 0.000361 0.000000
0.000099 0.000372 0.000000
0.000102 0.000380 0.000000
0.000099 0.000392 0.000000
0.000101 0.000399 0.000000
0.000103 0.000408 0.000000
0.000100 0.000418 0.000000
0.000100 0.000436 0.000000
0.000110 0.000443 0.000000
0.000097 0.000445 0.000000
0.000107 0.000460 0.000000
0.000098 0.000467 0.000000
0.000095 0.000481 0.000000
0.000106 0.000491 0.000000
0.000101 0.000494 0.000000
0.000634 0.000870 0.000000
0.000642 0.000876 0.000000
0.000665 0.000895 0.000000
0.000750 0.000873 0.000000
0.000764 0.000865 0.000000
0.000768 0.000855 0.000000
0.000789 0.000852 0.000000
0.000781 0.000847 0.000000
0.000804 0.000847 0.000000
0.000814 0.000838 0.000000
0.000110 0.000300 0.000000
0.000110 0.000310 0.000000
0.000110 0.000321 0.000000
0.000110 0.000329 0.000000
0.000110 0.000339 0.000000
0.000111 0.000350 0.000000
0.000109 0.000358 0.000000
0.000112 0.000369 0.000000
0.000110 0.000378 0.000000
0.000111 0.000389 0.000000
0.000112 0.000399 0.000000
0.000110 0.000414 0.000000
0.000116 0.000422 0.000000
0.000107 0.000427 0.000000
0.000112 0.000433 0.000000
0.000106 0.000450 0.000000
0.000115 0.000461 0.000000
0.000111 0.000471 0.000000
0.000116 0.000480 0.000000
0.000111 0.000493 0.000000
0.000119 0.000492 0.000000
0.000591 0.000814 0.000000
0.000557 0.000731 0.000000
0.000699 0.000889 0.000000
0.000723 0.000881 0.000000
0.000713 0.000876 0.000000
[...]
POINT_DATA 6231
SCALARS density float 1
LOOKUP_TABLE default
4411.239274
4424.804716
4420.829965
4423.341339
4427.049893
4427.000317
4422.878192
4422.174090
4428.680702
4430.312822
4426.389386
4430.072795
4427.433139
4430.607866
4432.354341
4442.219415
4423.948342
4431.004169
4412.681173
4424.333903
4411.336457
4424.009868
4427.262653
4432.925148
4441.882167
4418.770546
4399.765372
4431.066752
4450.442080
4453.492017
4418.320258
4412.272247
4417.980706
4430.133247
4426.453385
4421.238922
4422.882113
4426.895327
4433.107802
4426.981514
4428.587073
4423.554157
4436.147287
4425.662874
4437.739751
4415.495472
4424.114824
4409.677264
4447.157980
4461.943401
4459.792045
4416.404548
4408.699727
4411.552887
4433.016675
4504.867347
4394.012549
4400.601920
4425.688735
4407.831207
4459.978167
4446.245943
4416.590681
4433.155942
4427.327477
4415.698218
4434.197179
4427.429668
4422.953271
4434.443471
4412.652978
4435.510412
4427.763536
4430.567103
4417.807422
4440.381653
4412.618531
4482.553711
4400.062036
4450.250625
4351.692600
4449.741525
4420.916139
4421.869091
4426.504260
4412.650444
4514.755564
4325.239913
4365.138366
4417.952089
4415.442531
4417.436354
4399.450349
4427.442990
4429.636492
4414.156236
4436.663802
4434.993464
4428.108028
4428.808977
4424.462250
4432.887244
4438.369016
4407.737184
4441.374326
4417.058573
4447.311406
4398.639964
4435.447229
4386.217097
4458.301028
4369.969729
4555.170093
4370.164513
4431.613979
4456.666329
4428.085707
4487.967362
4340.594959
4487.848342
4465.956168
4399.655273
4486.950126
4443.356383
4431.538436
4423.993869
4435.594160
4444.820573
4407.916740
4434.153024
4434.805923
4431.017049
4425.192387
4426.352522
4418.468123
4452.835772
4404.562712
4442.375046
4421.326113
4445.096591
4390.697481
4509.883447
4307.287832
4419.883266
4383.808694
4430.029297
4421.509276
4425.165838
4424.917366
4479.806023
4435.173358
4404.892447
4493.452865
4437.042021
4415.438020
4424.090780
4425.349215
4431.405375
4411.170126
4448.085357
4454.674999
4406.976687
4438.883071
4416.831636
4437.403485
4429.473550
4421.032841
4421.789426
4453.003976
4374.511107
4480.996935
4365.085051
4472.510998
4357.794494
4536.921560
4382.553970
4446.230786
4427.438219
4452.882568
4411.879202
4440.326653
4443.890880
4387.766340
4393.344244
4411.207171
4417.330941
4427.737341
4439.913064
4427.128968
4441.612491
4423.477122
4411.516016
4438.764542
4446.184487
4408.008237
4438.042553
4420.283290
4443.790725
4418.846835
4427.992154
4423.657014
4461.258879
4403.042708
4518.215102
4382.495875
4479.574865
4432.718850
4417.999586
4397.594820
4414.542750
4458.850075
4466.956534
4429.350455
4403.442047
4422.972070
4420.211032
4425.827750
4428.754028
4428.482692
4406.216244
4442.012470
4420.194321
4442.715646
4442.930407
4403.862243
4435.830103
4448.713468
4391.847333
4426.624119
4409.153376
4442.372468
4431.200706
4453.805919
4443.403471
4447.442705
4448.304267
4412.725040
4389.849836
4513.289194
4449.626800
4438.052254
4451.527416
4431.102224
4432.061797
4459.828975
4437.661891
4452.966879
4410.340785
4422.614631
4433.773996
4437.920889
4412.856333
4418.260102
4425.108118
4402.017702
4444.151297
4431.620188
4425.125969
4418.840763
4438.904030
4413.137832
4439.642744
4469.206889
4390.429979
4454.979493
4450.122432
4367.117102
4465.219981
4414.568539
4434.611582
4416.795829
4418.824301
4437.394131
4370.241250
4466.950372
4419.343207
4399.223706
4439.402070
4435.661793
4431.611594
4423.308591
4429.218793
4421.003387
4434.207815
4437.397647
4419.740434
4446.142060
4404.795504
4445.052865
4452.312573
4389.772122
4425.642915
4457.883988
4419.341578
4390.169587
4432.980801
4434.653379
4431.514956
4425.949052
4415.495399
4423.457294
4435.177731
4422.860598
4474.736367
4398.542915
4391.744136
4448.787675
4435.996082
4430.654256
4416.654859
4429.967855
4424.196201
4430.316932
4437.855045
4415.897327
4422.297256
4437.997063
4411.090465
4439.769563
4429.444685
4425.550111
4450.122748
4426.300177
4382.955673
4458.386624
4447.232463
4420.517775
4459.457114
4412.051892
4437.923512
4418.543978
4423.995814
4432.307581
4422.251794
4436.302612
4461.842090
4372.161736
4399.579581
4475.555837
4449.732608
4421.625157
4424.607565
4443.840984
4431.782100
4422.278862
4436.903201
4433.546981
4430.513857
4431.490250
4441.724620
4421.365846
4423.426509
4444.803171
4398.317488
4444.345163
4425.016249
4425.960928
4468.826516
4388.904432
4458.528851
4401.684835
4409.011603
4430.724142
4432.318036
4437.823252
4400.707855
4428.823317
4473.021194
4452.268388
4408.492265
4425.857650
4452.189679
4434.662028
4428.727520
4415.215222
4436.071342
4429.202151
4417.626524
4417.093698
4443.960626
4399.775718
4443.160240
4431.878483
4412.202821
4452.715029
4435.817611
4429.308474
4376.576284
4437.650081
4391.631539
4437.006250
4432.880893
4394.679214
4441.200101
4420.734471
4428.785074
4449.728076
4448.031843
4414.415510
4339.709134
4461.710397
4389.091396
4416.123903
4435.699380
4435.543577
4435.912275
4447.828346
4408.832646
4439.471341
4439.733497
4419.916961
4431.608953
4422.489952
4426.465699
4413.254262
4430.247968
4444.017862
4405.249735
4444.540980
4393.984763
4457.085732
4491.504603
4419.196765
4436.645023
4435.064523
4413.547958
4417.752964
4432.223529
4428.589666
4443.938730
4475.577773
4475.897835
4485.945963
4451.640264
4435.104161
4436.126975
4425.467063
4409.142149
4443.046772
4424.639755
4415.028440
4423.703805
4445.526927
4402.901083
4426.376537
4444.606497
4413.147301
4413.039829
4438.588232
4381.560437
4417.166592
4507.612289
4573.363780
4385.394831
4374.658613
4414.193126
4417.767393
4453.871230
4456.040704
4383.733647
4451.856592
4408.319910
4403.379565
4405.391309
4448.295923
4436.915788
4431.696171
4437.743452
4446.047783
4430.401618
4413.163717
4427.852980
4458.914982
4405.043330
4427.109078
4442.206360
4420.933529
4442.312631
4429.423567
4444.943133
4415.038831
4485.245193
4356.492716
4332.358331
4486.954988
4394.972752
4413.612663
4436.913530
4426.432291
4491.804800
4443.414962
4407.510902
4440.898514
4389.926064
4425.471564
4412.625751
4434.088131
4428.804926
4429.279484
4411.569197
4438.333034
4429.132302
4419.898066
4410.481305
4433.602643
4454.581758
4408.489519
4415.129700
4446.870112
4381.680898
4442.234331
4446.140898
4395.596435
4489.335331
4477.381363
4422.173046
4406.668228
4425.092282
4446.289348
4418.629028
4377.971843
4451.850223
4450.936798
4412.943028
4401.381119
4432.526251
4428.210188
4431.900139
4430.365443
4439.935570
4434.880733
4442.058364
4418.254515
4434.225580
4438.307804
4420.826051
4396.303127
4465.912326
4430.983136
4406.326399
4469.385308
4413.344517
4430.600376
4385.619210
4490.178106
4351.218862
4367.662610
4424.258580
4425.795064
4440.745085
4438.073834
4398.487290
4438.109815
4417.335673
4448.347381
4459.486836
4436.395191
4434.682870
4434.738290
4427.173741
4422.637721
4431.784790
4425.748317
4435.195074
4435.533070
4403.775301
4436.576154
4459.034498
4411.710755
4422.468260
4425.069385
4425.985896
4411.377548
4454.187857
4350.914598
4463.466901
4401.858358
4444.435164
4391.615707
4431.594052
4430.673022
4443.684795
4457.776264
4406.431230
4463.569836
4454.963973
4412.970568
4415.173095
4423.116937
4430.815493
4425.084219
4437.113606
4434.404447
4428.137458
4440.495814
4424.382611
4440.174280
4414.888427
4407.607544
4430.491128
4442.510301
4420.728398
4434.590722
4413.621238
4454.591157
4385.874123
4457.701638
4430.796550
4574.050688
4375.362788
4485.646180
4431.116616
4437.327989
4432.011893
4396.334827
4453.040401
4398.994058
4416.508187
4430.248903
4408.873614
4427.904889
4434.447838
4428.291806
4422.189150
4429.247761
4425.667527
4421.545100
4437.288787
4418.251111
4433.552594
4435.182765
4409.447866
4415.280739
4444.408545
4410.320928
4452.300237
4454.430989
4465.734122
4365.476822
4380.571554
4551.273648
4407.553725
4427.937696
4456.541545
4435.146263
4380.562924
4418.599739
4442.020414
4467.383852
4405.915591
4404.594531
4431.145590
4434.031870
4424.273467
4434.087132
4437.564476
4431.435783
4427.152392
4412.917734
4419.651634
4441.016518
4399.089621
4452.302166
4456.468656
4423.756480
4392.199525
4448.248576
4418.111538
4449.781285
4399.518441
4458.042604
4413.341871
4446.747013
4413.951610
4428.514254
4435.821962
4425.964895
4402.646712
4451.121654
4356.245442
4419.038844
4450.199927
4429.163646
4426.550660
4431.880155
4435.766088
4410.230135
4423.963886
4426.414042
4449.463681
4416.835542
4428.319680
4421.295220
4406.197258
4473.323982
4392.825620
4404.350063
4462.986693
4376.059763
4404.410073
4430.041293
4447.567797
4420.758456
4427.847490
4438.631298
4437.847575
4413.615244
4438.369441
4476.266222
4375.150180
4480.900303
4361.967602
4424.556129
4429.608181
4433.197934
4429.115357
4423.983172
4431.612468
4448.251072
4415.810247
4403.707738
4406.492519
4445.142048
4404.278394
4437.561939
4440.835833
4435.015891
4434.043030
4403.966606
4438.128865
4424.248720
4404.252114
4439.353102
4420.474375
4420.120433
4473.132720
4399.221383
4432.421568
4470.983880
4443.642997
4365.269856
4445.553221
4407.526834
4457.072198
4426.632392
4428.644761
4423.646319
4430.895066
4417.642149
4413.539691
4427.784384
4437.433301
4436.691811
4424.099355
4409.367374
4439.923711
4406.182496
4416.369615
4407.694380
4431.796108
4402.205012
4459.733217
4440.429013
4489.875523
4411.140651
4405.522643
4453.697276
4390.781322
4435.262790
4439.127675
4453.753262
4430.201338
4461.194089
4436.448373
4444.441492
4429.417447
4432.279466
4426.284135
4434.659640
4426.588570
4432.189145
4422.570329
4399.538169
4411.351429
4430.672293
4443.188061
4435.841823
4421.334184
4430.821488
4441.612060
4445.714335
4392.700397
4463.337174
4363.170911
4409.750119
4433.058605
4404.776676
4459.019833
4442.561922
4415.750047
4407.153004
4419.538839
4423.439976
4394.764937
4424.250934
4411.299022
4423.548740
4432.998129
4422.272025
4424.092889
4411.658425
4434.404983
4411.099313
4445.125729
4447.029390
4405.387670
4404.241687
4443.371255
4419.919373
4427.755448
4409.794249
4425.706498
4436.209222
4466.592291
4411.089559
4447.373219
4420.894084
4530.782205
4416.230123
4370.112597
4440.726649
4450.602317
4417.361719
4438.470082
4497.858118
4420.505294
4446.440650
4427.077987
4435.056192
4422.416438
4438.146792
4439.202521
4425.020192
4427.816519
4417.968990
4391.341669
4445.578474
4436.941606
4433.931105
4399.454466
4444.154999
4411.621103
4461.660547
4387.319184
4478.823874
4404.895871
4427.527118
4421.758557
4417.334138
4423.997969
4429.771501
4440.864577
4433.332656
4421.695508
4434.783327
4395.638965
4378.144993
4435.746176
4428.759899
4428.712526
4425.139317
4422.155263
4419.674519
4437.115694
4430.180163
4427.832051
4441.449315
4435.602017
4392.224753
4438.075385
4434.977155
4454.003211
4422.011935
4433.312757
4408.357749
4452.815752
4433.112599
4431.427960
4411.842916
4413.430897
4419.546237
4424.943295
4494.871715
4404.488763
4419.637979
4440.859290
4376.510423
4434.796688
4414.939162
4424.736743
4424.744528
4434.127803
4435.944054
4440.993793
4422.836336
4415.258260
4430.396627
4403.473767
4417.217187
4451.959455
4424.663018
4425.109452
4393.073523
4450.749134
4428.885721
4399.760874
4359.417803
4390.514938
4461.138145
4446.379961
4409.262923
4407.740663
4399.192868
4459.218469
4400.080117
4426.630461
4460.597397
4461.543932
4428.518921
4459.369069
4434.987290
4433.727826
4424.414847
4417.813110
4417.424838
4438.584672
4439.405400
4420.564621
4436.092911
4418.668601
4434.555660
4401.885999
4447.626117
4432.347664
4421.613554
4432.657451
4417.195106
4490.175201
4455.670173
4436.802865
4445.494404
4516.755377
4437.035648
4419.189014
4446.300709
4433.760072
4421.387769
4432.413678
4419.243581
4419.997154
4409.911339
4425.718701
4427.423497
4431.270355
4443.582672
4439.711968
4428.620102
4418.801855
4411.677591
4450.121691
4417.965080
4417.409130
4437.169805
4430.078591
4415.850724
4423.821329
4446.879701
4385.954243
4442.151723
4390.888335
4375.390798
4432.008736
4433.099230
4464.375387
4420.462168
4486.636240
4380.721330
4413.859111
4417.301342
4455.557883
4359.153473
4423.692272
4429.500225
4431.295736
4433.105740
4408.111745
4431.432382
4434.589874
4429.978150
4442.431900
4392.661383
4438.998708
4436.445178
4422.291980
4410.462022
4458.963850
4426.940432
4445.374410
4407.061871
4383.171006
4472.364659
4465.389891
4448.198203
4399.899985
4405.659787
4448.317033
4420.252817
4429.094628
4375.579021
4468.329127
4427.606576
4452.072225
4421.352679
4439.362594
4431.016437
4425.147570
4439.325222
4435.950783
4422.641762
4404.310665
4421.074366
4430.526771
4440.261228
4392.003734
4450.031249
4425.729461
4429.899432
4387.399350
4434.950421
4450.939086
4459.771291
4345.824941
4471.912344
4458.890996
4469.024616
4490.703908
4428.105546
4463.463304
4453.826017
4450.020193
4435.202668
4392.760318
4391.833392
4435.513454
4432.431252
4425.679100
4423.241905
4419.856104
4413.321760
4449.384608
4403.506567
4442.452480
4407.590264
4421.762718
4423.541816
4437.178099
4402.803721
4445.463914
4418.108282
4435.390849
4378.567404
4446.554339
4311.730038
4501.189620
4514.552423
4423.514487
4408.725781
4525.792496
4359.590582
4430.498601
4378.758182
4467.676054
4355.575470
4444.535941
4441.710705
4429.077181
4434.483472
4434.496985
4426.372397
4435.982440
4426.522096
4430.292796
4417.566615
4436.070309
4416.630565
4423.590141
4401.959744
4430.537362
4426.651448
4402.828927
4453.827394
4397.320333
4451.766325
4457.052744
4504.287674
4431.013713
4423.915969
4370.824330
4418.246916
4410.689843
4434.653873
4441.102211
4469.382179
4442.339284
4377.473042
4451.362054
4421.687015
4428.603041
4424.941507
4424.270354
4416.143727
4422.282732
4431.775292
4421.241831
4408.630226
4433.744778
4425.641258
4436.174051
4414.048736
4432.881940
4441.447584
4430.550735
4437.560848
4443.168287
4439.740205
4471.033734
4624.860959
4454.681746
4529.696957
4421.611637
4426.122206
4465.004398
4384.299179
4422.387776
4458.204063
4430.178480
4413.218588
4424.606285
4433.684250
4426.130064
4435.244046
4424.206260
4421.650905
4431.703074
4446.847787
4422.341135
4433.107942
4414.418937
4407.085936
4432.366643
4434.093203
4393.529264
4427.679310
4408.591290
4412.154930
4423.037943
4426.584627
4398.793294
4425.699755
4449.148366
4412.648684
4445.200576
4462.259418
4362.017434
4375.837544
4496.220080
4468.563008
4411.165698
4424.507361
4430.425672
4405.596310
4425.581053
4430.907240
4441.670047
4397.351187
4443.813524
4413.170625
4440.468834
4416.542366
4441.652712
4430.021162
4435.398161
4432.807197
4441.561788
4407.980570
4429.489249
4460.049437
4456.161715
4422.748742
4485.067166
4381.273042
4405.043850
4431.286059
4450.172750
4477.877321
4435.286061
4373.386034
4417.191345
4396.172696
4423.199788
4425.863246
4432.394571
4448.210643
4414.854610
4417.734533
4419.495785
4437.097070
4403.379096
4438.577307
4417.051955
4428.155309
4419.183157
4422.310188
4417.033549
4431.594677
4439.091537
4354.091015
4435.146940
4487.780969
4408.897402
4479.742491
4441.765801
4412.786461
4454.884150
4450.406926
4405.597836
4527.861894
4369.412611
4458.931407
4411.266285
4421.566715
4432.746200
4412.930391
4416.542897
4434.737140
4427.613865
4409.807179
4431.944503
4438.629110
4425.761201
4405.420257
4406.753545
4402.055204
4433.374952
4424.678215
4441.088282
4403.454363
4403.427270
4438.718089
4434.482973
4435.569331
4424.385110
4450.482280
4416.331144
4457.943351
4427.164096
4465.111640
4410.699071
4363.361869
4386.493385
4420.866348
4421.444264
4429.728048
4430.045152
4430.524134
4434.661530
4408.014140
4451.663484
4416.734567
4441.952797
4411.553819
4411.827199
4465.371955
4409.084692
4419.178742
4413.836396
4428.205304
4464.078193
4398.851463
4433.442610
4449.940349
4414.350774
4424.264247
4459.724612
4400.081912
4391.148815
4469.549352
4417.309898
4395.491316
4459.128143
4471.063239
4416.385214
4426.274466
4419.018574
4416.494018
4423.048562
4413.111928
4452.305220
4399.316325
4438.412957
4413.149547
4427.060215
4391.342584
4437.010782
4435.596324
4435.110554
4397.967808
4453.161050
4397.629689
4424.137966
4381.780400
4426.701126
4415.186767
4461.115973
4436.586346
4471.784217
4442.094373
4414.228378
4402.315263
4387.293103
4459.071560
4354.385180
4419.648148
4421.447737
4421.917455
4437.505663
4433.045971
4406.462646
4446.666404
4413.686647
4426.599652
4421.531000
4428.522851
4415.552990
4424.411713
4422.604474
4421.276175
4425.230443
4406.158252
4409.399152
4452.694707
4432.859422
4501.561502
4431.504862
4451.308486
4465.111830
4441.409542
4467.260196
4470.785187
4470.632405
4461.397434
4467.466029
4413.744764
4398.704058
4422.742161
4425.716287
4412.457542
4417.744279
4439.121526
4397.613166
4433.726328
4424.859835
4430.907350
4412.586380
4424.634767
4427.357959
4403.048559
4427.172852
4428.839165
4385.235930
4423.203834
4397.098059
4356.315238
4446.281328
4437.349238
4431.272957
4428.587188
4463.941666
4442.816404
4425.276317
4442.081008
4423.397120
4448.470412
4442.477782
4413.838958
4418.029218
4424.107205
4436.438636
4415.179517
4441.738525
4427.549454
4418.608399
4411.109833
4421.266398
4451.282191
4423.074925
4435.456068
4436.998528
4444.220527
4454.712133
4439.019192
4373.073372
4445.849325
4479.811009
4455.348170
4414.236622
4416.249968
4446.532109
4455.147935
4461.430000
4448.670277
4443.324658
4382.289205
4452.090797
4379.642722
4456.943597
4420.963862
4431.408644
4425.497646
4420.910663
4400.733659
4449.322035
4430.701292
4434.868829
4400.281562
4445.919712
4422.725821
4427.423406
4392.547417
4416.454522
4402.852796
4457.035583
4417.160184
4496.691813
4394.763186
4327.838042
4379.738462
4466.692717
4465.633251
4430.435788
4433.784829
4462.877911
4450.231832
4345.685908
4434.690243
4421.853459
4384.985075
4434.389493
4427.842706
4410.232567
4432.345366
4439.418690
4410.715895
4415.318726
4423.725920
4398.149085
4438.771158
4410.478425
4437.696565
4451.972982
4449.230202
4431.675957
4424.030318
4455.057080
4400.260633
4393.915433
4549.580278
4390.519514
4414.178452
4467.878768
4436.757134
4452.228658
4447.586461
4431.486468
4474.781307
4480.725997
4391.056934
4424.093267
4427.225642
4425.633406
4443.436668
4422.247452
4398.737997
4413.773865
4412.372333
4420.042704
4411.679617
4416.398702
4427.773612
4411.532709
4393.439598
4439.383928
4429.711843
4420.126041
4435.105801
4457.048688
4406.902254
4432.814557
4471.539444
4547.310155
4489.192505
4473.266340
4500.237104
4436.124274
4425.245440
4460.071821
4468.568211
4443.845096
4474.660553
4428.801816
4426.215408
4424.028328
4420.613629
4429.410415
4450.529380
4426.031090
4424.219893
4432.993885
4403.453897
4442.329947
4427.508993
4433.544915
4435.729532
4412.337208
4421.499433
4412.604496
4420.121394
4449.073818
4443.374190
4532.349744
4400.521645
4458.192464
4508.103936
4474.346048
4467.563321
4423.303820
4408.205753
4378.188712
4366.574562
4355.380247
4427.230979
4437.152428
4409.804768
4430.186542
4427.279681
4398.036269
4446.092487
4409.541175
4436.541094
4434.605781
4424.654628
4413.304044
4403.976891
4444.916271
4415.552154
4425.434950
4398.241640
4396.644924
4443.532783
4386.965516
4466.150134
4416.034269
4457.651895
4417.627119
4445.490439
4454.028239
4419.542804
4425.239946
4468.311558
4404.821811
4438.393074
4424.251140
4415.656593
4438.445074
4412.119264
4417.559349
4426.466269
4425.504133
4414.013087
4417.078986
4432.244526
4401.719029
4433.742162
4392.278305
4443.307985
4414.331022
4437.431796
4385.473180
4452.642828
4424.375097
4409.347162
4459.875563
4472.051392
4464.620922
4459.291621
4391.243643
4440.462591
4455.046988
4433.536291
4441.410870
4407.626942
4419.746490
4431.491196
4424.407156
4426.338365
4438.108718
4441.988444
4397.486684
4435.758370
4421.618653
4426.869107
4414.159736
4431.146530
4415.214319
4430.405433
4438.580800
4422.240963
4424.685539
4437.086792
4462.454657
4507.494115
4359.882791
4411.865242
4462.716613
4492.198646
4465.969601
4437.361829
4476.170531
4453.794321
4431.411362
4432.385192
4414.518689
4385.883178
4421.616588
4424.241684
4417.106326
4400.859149
4423.572826
4421.431000
4444.007164
4428.010092
4403.935069
4430.737137
4415.265318
4436.389258
4401.917108
4418.880646
4397.570664
4408.643145
4442.977416
4428.432028