# vtk DataFile Version 2.0
mfree iwf
ASCII

DATASET UNSTRUCTURED_GRID
POINTS 6231 float
0.000000 0.000300 0.000000
0.000000 0.000310 0.000000
0.000000 0.000320 0.000000
0.000000 0.000330 0.000000
0.000000 0.000340 0.000000
0.000001 0.000350 0.000000
0.000001 0.000361 0.000000
0.000001 0.000371 0.000000
0.000001 0.000381 0.000000
0.000001 0.000391 0.000000
0.000001 0.000401 0.000000
0.000001 0.000411 0.000000
0.000001 0.000421 0.000000
0.000001 0.000431 0.000000
0.000002 0.000441 0.000000
0.000002 0.000451 0.000000
0.000002 0.000461 0.000000
0.000002 0.000471 0.000000
0.000002 0.000480 0.000000
0.000002 0.000492 0.000000
0.000006 0.000501 0.000000
0.000106 0.000525 0.000000
0.000106 0.000566 0.000000
0.000106 0.000548 0.000000
0.000106 0.000579 0.000000
0.000106 0.000590 0.000000
0.000106 0.000607 0.000000
0.000106 0.000608 0.000000
0.000106 0.000622 0.000000
0.000107 0.000636 0.000000
0.000109 0.000679 0.000000
0.000010 0.000300 0.000000
0.000010 0.000310 0.000000
0.000010 0.000320 0.000000
0.000010 0.000330 0.000000
0.000010 0.000340 0.000000
0.000011 0.000350 0.000000
0.000011 0.000360 0.000000
0.000011 0.000370 0.000000
0.000011 0.000380 0.000000
0.000011 0.000391 0.000000
0.000011 0.000400 0.000000
0.000011 0.000411 0.000000
0.000011 0.000420 0.000000
0.000011 0.000431 0.000000
0.000012 0.000440 0.000000
0.000012 0.000451 0.000000
0.000012 0.000460 0.000000
0.000012 0.000471 0.000000
0.000013 0.000479 0.000000
0.000010 0.000492 0.000000
0.000013 0.000498 0.000000
0.000110 0.000568 0.000000
0.000115 0.000584 0.000000
0.000114 0.000594 0.000000
0.000115 0.000602 0.000000
0.000115 0.000624 0.000000
0.000114 0.000632 0.000000
0.000114 0.000648 0.000000
0.000112 0.000656 0.000000
0.000111 0.000663 0.000000
0.000108 0.000671 0.000000
0.000020 0.000300 0.000000
0.000020 0.000310 0.000000
0.000020 0.000320 0.000000
0.000020 0.000331 0.000000
0.000021 0.000340 0.000000
0.000021 0.000350 0.000000
0.000020 0.000360 0.000000
0.000021 0.000371 0.000000
0.000021 0.000380 0.000000
0.000021 0.000390 0.000000
0.000021 0.000400 0.000000
0.000022 0.000410 0.000000
0.000021 0.000420 0.000000
0.000021 0.000431 0.000000
0.000021 0.000440 0.000000
0.000022 0.000451 0.000000
0.000021 0.000460 0.000000
0.000022 0.000471 0.000000
0.000021 0.000481 0.000000
0.000024 0.000494 0.000000
0.000020 0.000497 0.000000
0.000124 0.000558 0.000000
0.000123 0.000571 0.000000
0.000122 0.000578 0.000000
0.000126 0.000595 0.000000
0.000124 0.000606 0.000000
0.000120 0.000618 0.000000
0.000120 0.000637 0.000000
0.000116 0.000653 0.000000
0.000120 0.000665 0.000000
0.000121 0.000675 0.000000
0.000030 0.000300 0.000000
0.000030 0.000310 0.000000
0.000030 0.000320 0.000000
0.000030 0.000330 0.000000
0.000031 0.000340 0.000000
0.000029 0.000351 0.000000
0.000032 0.000360 0.000000
0.000030 0.000370 0.000000
0.000031 0.000380 0.000000
0.000031 0.000391 0.000000
0.000032 0.000400 0.000000
0.000030 0.000410 0.000000
0.000032 0.000420 0.000000
0.000031 0.000431 0.000000
0.000032 0.000440 0.000000
0.000030 0.000451 0.000000
0.000033 0.000460 0.000000
0.000030 0.000471 0.000000
0.000034 0.000479 0.000000
0.000031 0.000488 0.000000
0.000032 0.000498 0.000000
0.000063 0.000501 0.000000
0.000133 0.000580 0.000000
0.000125 0.000589 0.000000
0.000127 0.000611 0.000000
0.000130 0.000621 0.000000
0.000128 0.000627 0.000000
0.000128 0.000640 0.000000
0.000128 0.000649 0.000000
0.000129 0.000660 0.000000
0.000129 0.000674 0.000000
0.000040 0.000300 0.000000
0.000040 0.000310 0.000000
0.000040 0.000320 0.000000
0.000040 0.000330 0.000000
0.000041 0.000341 0.000000
0.000040 0.000349 0.000000
0.000041 0.000360 0.000000
0.000039 0.000371 0.000000
0.000043 0.000380 0.000000
0.000039 0.000390 0.000000
0.000042 0.000400 0.000000
0.000041 0.000411 0.000000
0.000043 0.000420 0.000000
0.000039 0.000430 0.000000
0.000043 0.000439 0.000000
0.000041 0.000451 0.000000
0.000043 0.000460 0.000000
0.000041 0.000470 0.000000
0.000044 0.000480 0.000000
0.000043 0.000497 0.000000
0.000040 0.000498 0.000000
0.000106 0.000510 0.000000
0.000138 0.000576 0.000000
0.000139 0.000592 0.000000
0.000136 0.000601 0.000000
0.000139 0.000611 0.000000
0.000136 0.000633 0.000000
0.000137 0.000646 0.000000
0.000138 0.000656 0.000000
0.000137 0.000665 0.000000
0.000138 0.000674 0.000000
0.000050 0.000300 0.000000
0.000050 0.000310 0.000000
0.000050 0.000320 0.000000
0.000050 0.000330 0.000000
0.000051 0.000339 0.000000
0.000050 0.000350 0.000000
0.000051 0.000361 0.000000
0.000050 0.000370 0.000000
0.000051 0.000380 0.000000
0.000049 0.000391 0.000000
0.000053 0.000400 0.000000
0.000049 0.000410 0.000000
0.000053 0.000419 0.000000
0.000051 0.000431 0.000000
0.000054 0.000440 0.000000
0.000049 0.000450 0.000000
0.000054 0.000459 0.000000
0.000051 0.000472 0.000000
0.000053 0.000479 0.000000
0.000051 0.000489 0.000000
0.000050 0.000498 0.000000
0.000111 0.000560 0.000000
0.000118 0.000542 0.000000
0.000142 0.000590 0.000000
0.000145 0.000610 0.000000
0.000143 0.000621 0.000000
0.000145 0.000629 0.000000
0.000146 0.000638 0.000000
0.000146 0.000648 0.000000
0.000147 0.000662 0.000000
0.000148 0.000673 0.000000
0.000060 0.000300 0.000000
0.000060 0.000310 0.000000
0.000060 0.000320 0.000000
0.000060 0.000330 0.000000
0.000060 0.000341 0.000000
0.000061 0.000351 0.000000
0.000060 0.000359 0.000000
0.000061 0.000370 0.000000
0.000061 0.000381 0.000000
0.000061 0.000390 0.000000
0.000061 0.000400 0.000000
0.000060 0.000411 0.000000
0.000063 0.000420 0.000000
0.000058 0.000431 0.000000
0.000064 0.000438 0.000000
0.000061 0.000451 0.000000
0.000064 0.000460 0.000000
0.000060 0.000470 0.000000
0.000064 0.000479 0.000000
0.000069 0.000489 0.000000
0.000058 0.000496 0.000000
0.000110 0.000553 0.000000
0.000140 0.000568 0.000000
0.000153 0.000593 0.000000
0.000150 0.000601 0.000000
0.000153 0.000615 0.000000
0.000153 0.000630 0.000000
0.000156 0.000645 0.000000
0.000155 0.000654 0.000000
0.000157 0.000662 0.000000
0.000158 0.000672 0.000000
0.000070 0.000300 0.000000
0.000070 0.000310 0.000000
0.000070 0.000320 0.000000
0.000071 0.000330 0.000000
0.000070 0.000339 0.000000
0.000071 0.000349 0.000000
0.000070 0.000361 0.000000
0.000071 0.000372 0.000000
0.000071 0.000379 0.000000
0.000071 0.000389 0.000000
0.000071 0.000400 0.000000
0.000072 0.000411 0.000000
0.000071 0.000420 0.000000
0.000071 0.000430 0.000000
0.000073 0.000441 0.000000
0.000068 0.000451 0.000000
0.000075 0.000458 0.000000
0.000070 0.000471 0.000000
0.000075 0.000480 0.000000
0.000069 0.000496 0.000000
0.000076 0.000497 0.000000
0.000106 0.000504 0.000000
0.000128 0.000564 0.000000
0.000148 0.000579 0.000000
0.000160 0.000605 0.000000
0.000160 0.000619 0.000000
0.000163 0.000627 0.000000
0.000162 0.000638 0.000000
0.000165 0.000648 0.000000
0.000166 0.000661 0.000000
0.000168 0.000671 0.000000
0.000080 0.000300 0.000000
0.000080 0.000310 0.000000
0.000080 0.000320 0.000000
0.000080 0.000330 0.000000
0.000080 0.000341 0.000000
0.000081 0.000351 0.000000
0.000080 0.000360 0.000000
0.000081 0.000368 0.000000
0.000081 0.000380 0.000000
0.000081 0.000392 0.000000
0.000081 0.000400 0.000000
0.000081 0.000409 0.000000
0.000081 0.000420 0.000000
0.000082 0.000431 0.000000
0.000081 0.000440 0.000000
0.000082 0.000450 0.000000
0.000086 0.000465 0.000000
0.000077 0.000470 0.000000
0.000085 0.000475 0.000000
0.000086 0.000487 0.000000
0.000083 0.000496 0.000000
0.000111 0.000542 0.000000
0.000113 0.000534 0.000000
0.000158 0.000589 0.000000
0.000165 0.000596 0.000000
0.000166 0.000612 0.000000
0.000171 0.000628 0.000000
0.000172 0.000639 0.000000
0.000174 0.000650 0.000000
0.000175 0.000660 0.000000
0.000178 0.000670 0.000000
0.000090 0.000300 0.000000
0.000090 0.000310 0.000000
0.000091 0.000321 0.000000
0.000090 0.000330 0.000000
0.000091 0.000339 0.000000
0.000090 0.000349 0.000000
0.000091 0.000360 0.000000
0.000090 0.000372 0.000000
0.000091 0.000381 0.000000
0.000090 0.000388 0.000000
0.000092 0.000399 0.000000
0.000090 0.000412 0.000000
0.000093 0.000421 0.000000
0.000091 0.000429 0.000000
0.000092 0.000440 0.000000
0.000094 0.000453 0.000000
0.000087 0.000455 0.000000
0.000094 0.000469 0.000000
0.000097 0.000485 0.000000
0.000089 0.000495 0.000000
0.000096 0.000496 0.000000
0.000114 0.000514 0.000000
0.000127 0.000551 0.000000
0.000132 0.000551 0.000000
0.000149 0.000568 0.000000
0.000172 0.000609 0.000000
0.000178 0.000622 0.000000
0.000180 0.000635 0.000000
0.000183 0.000647 0.000000
0.000185 0.000658 0.000000
0.000188 0.000668 0.000000
0.000100 0.000300 0.000000
0.000100 0.000310 0.000000
0.000100 0.000319 0.000000
0.000100 0.000330 0.000000
0.000101 0.000341 0.000000
0.000099 0.000351 0.000000
0.000102 0.000360 0.000000
0.000099 0.000369 0.000000
0.000102 0.000379 0.000000
0.000100 0.000391 0.000000
0.000102 0.000402 0.000000
0.000100 0.000408 0.000000
0.000102 0.000419 0.000000
0.000100 0.000432 0.000000
0.000103 0.000441 0.000000
0.000100 0.000448 0.000000
0.000103 0.000460 0.000000
0.000103 0.000471 0.000000
0.000098 0.000477 0.000000
0.000111 0.000486 0.000000
0.000103 0.000494 0.000000
0.000117 0.000521 0.000000
0.000120 0.000528 0.000000
0.000126 0.000537 0.000000
0.000173 0.000598 0.000000
0.000182 0.000611 0.000000
0.000183 0.000620 0.000000
0.000188 0.000635 0.000000
0.000190 0.000643 0.000000
0.000194 0.000655 0.000000
0.000197 0.000666 0.000000
0.000110 0.000300 0.000000
0.000110 0.000310 0.000000
0.000110 0.000320 0.000000
0.000111 0.000331 0.000000
0.000110 0.000339 0.000000
0.000111 0.000349 0.000000
0.000111 0.000360 0.000000
0.000110 0.000371 0.000000
0.000113 0.000381 0.000000
0.000109 0.000389 0.000000
0.000112 0.000398 0.000000
0.000111 0.000411 0.000000
0.000113 0.000423 0.000000
0.000110 0.000428 0.000000
0.000114 0.000438 0.000000
0.000110 0.000452 0.000000
0.000115 0.000461 0.000000
0.000111 0.000468 0.000000
0.000115 0.000480 0.000000
0.000114 0.000494 0.000000
0.000120 0.000504 0.000000
0.000123 0.000511 0.000000
0.000130 0.000521 0.000000
0.000139 0.000558 0.000000
0.000158 0.000578 0.000000
0.000163 0.000576 0.000000
[...]
POINT_DATA 6231
SCALARS density float 1
LOOKUP_TABLE default
4388.274480
4423.317067
4424.026776
4420.467189
4418.751711
4423.596043
4429.104405
4424.640528
4421.039114
4427.045051
4428.730600
4428.839185
4426.068279
4426.956495
4426.099423
4434.979964
4428.179100
4445.864332
4426.956011
4428.711703
4412.036879
4651.757149
4581.459830
4583.116895
4502.038490
4454.320239
4471.346690
4509.457825
4423.347867
4459.872319
4407.638033
4399.809677
4420.326676
4416.416476
4418.679001
4420.850752
4426.393300
4420.495382
4421.117393
4428.098882
4430.556916
4421.300420
4422.299340
4428.944422
4441.082722
4417.442710
4433.543156
4407.337547
4431.288683
4411.221510
4481.101207
4407.944376
4405.629484
4420.254978
4417.805418
4453.284738
4392.428234
4413.649723
4399.710340
4396.069725
4413.211836
4453.693916
4407.873048
4414.908247
4419.137131
4423.746675
4424.953607
4423.363502
4412.652464
4433.164429
4425.078172
4418.053025
4425.248546
4441.623381
4413.529607
4425.374467
4418.296376
4458.825315
4397.507273
4482.275609
4334.799729
4436.511916
4395.943960
4469.545681
4472.347392
4465.413783
4454.856381
4435.318995
4370.754571
4438.987068
4444.130743
4479.168396
4404.575606
4410.057913
4420.733182
4428.407192
4420.507201
4408.401142
4426.139990
4433.376310
4434.884598
4400.538567
4443.971557
4416.659463
4428.820504
4420.309818
4450.313755
4406.399085
4438.726354
4390.655515
4480.294247
4344.154540
4625.070386
4360.794391
4385.925582
4436.070153
4477.405476
4457.896828
4452.252907
4471.237057
4422.894049
4428.089437
4432.104716
4432.563709
4413.242379
4421.716438
4418.147310
4420.343495
4439.218148
4433.017742
4404.316363
4421.730060
4436.246305
4445.709735
4397.569754
4445.706292
4412.276389
4442.618459
4409.085249
4456.211024
4415.090154
4467.333136
4337.869856
4423.010148
4385.001026
4599.990854
4460.302927
4491.658685
4410.785421
4440.832221
4415.818367
4455.916889
4454.417041
4368.408371
4435.271613
4416.305620
4429.928195
4421.006785
4428.339519
4421.104374
4414.281932
4436.799241
4438.738668
4413.468690
4420.547311
4442.462152
4452.064394
4399.591084
4447.451499
4406.371537
4450.016608
4373.107744
4486.056445
4411.362278
4542.510357
4382.307292
4425.134296
4542.281908
4467.244569
4470.163477
4407.247834
4481.334480
4457.812066
4390.183118
4446.867911
4426.635383
4416.188272
4426.231955
4419.361542
4427.877839
4418.672263
4439.214680
4436.827458
4405.982283
4426.050846
4437.675068
4421.033300
4415.270004
4441.678941
4454.137626
4393.132906
4464.367687
4411.826290
4455.221731
4324.763377
4592.220859
4407.296130
4413.849911
4451.308561
4455.399849
4448.220738
4454.529967
4429.307720
4436.910386
4437.120403
4395.471240
4429.174973
4423.266086
4436.185888
4420.841458
4430.769497
4430.551661
4421.018378
4408.921510
4444.972384
4447.229756
4405.610835
4421.121003
4434.428974
4428.075560
4415.932220
4436.686700
4446.480550
4361.952383
4485.369408
4353.373747
4396.635143
4372.825572
4539.616245
4469.222444
4432.102061
4447.073199
4474.511386
4456.001905
4419.297224
4453.176635
4414.258505
4428.561804
4432.538928
4421.239030
4421.000692
4432.150621
4415.951308
4431.827284
4440.469607
4422.700257
4403.717364
4434.319371
4450.739738
4413.127005
4414.345425
4430.731893
4432.412996
4440.716005
4468.881789
4483.616546
4337.496761
4617.337756
4364.867928
4399.835024
4401.654855
4450.035037
4477.186474
4437.015090
4461.475555
4440.421408
4413.533311
4423.366216
4411.969100
4422.362894
4419.372598
4442.221799
4425.591514
4426.550475
4436.706684
4411.770980
4422.424226
4447.736609
4436.106756
4400.295681
4417.352928
4445.289159
4430.532059
4397.816631
4406.761698
4425.927725
4461.521428
4525.748501
4344.138036
4358.177227
4426.460637
4436.242809
4481.189150
4468.400796
4474.211720
4451.596804
4458.090131
4443.350887
4440.664940
4415.290065
4422.645323
4434.038599
4431.905827
4404.893243
4444.982638
4414.056030
4437.667414
4445.666247
4403.992026
4414.588215
4450.173685
4446.211847
4393.839865
4401.169985
4452.242295
4456.238632
4394.208259
4451.980567
4375.368583
4438.443824
4440.065103
4435.747551
4519.791070
4436.337849
4418.676193
4446.439789
4456.549587
4458.226560
4414.962490
4408.114206
4410.169964
4426.378910
4424.065230
4414.744836
4442.247408
4439.606676
4406.391130
4447.127885
4407.788530
4451.148120
4443.631336
4400.838528
4412.059532
4449.059424
4459.723279
4383.096026
4398.928710
4448.272164
4453.746228
4426.368718
4433.926173
4456.709256
4511.790890
4457.972188
4417.366246
4445.944782
4465.310071
4429.663072
4455.838743
4459.390204
4439.699799
4414.937091
4425.213423
4433.342589
4437.340999
4424.284466
4405.138333
4445.469235
4430.078924
4411.508786
4450.875910
4405.752890
4447.234402
4440.646340
4403.726980
4405.169884
4448.871742
4456.204840
4381.488847
4399.817768
4429.648330
4470.806635
4439.648571
4464.773912
4487.826456
4466.454319
4454.825148
4399.812050
4444.329456
4434.628067
4443.095226
4420.451761
4411.688128
4435.143674
4423.297877
4417.397461
4420.700947
4444.833426
4431.360259
4407.578207
4448.034725
4408.536487
4431.730937
4450.328704
4410.610993
4422.203438
4454.414976
4429.226851
4406.652761
4445.008409
4452.681736
4404.683906
4428.333363
4443.831005
4448.443202
4466.174602
4458.046368
4468.640848
4462.373161
4439.939472
4453.076547
4448.620967
4406.190278
4402.469831
4425.147047
4416.881044
4443.598135
4436.698362
4411.442055
4412.241850
4445.386596
4434.716713
4409.716834
4454.286380
4397.031188
4446.582053
4446.959291
4406.243767
4387.647996
4455.395234
4437.102816
4389.531928
4454.438129
4434.878295
4425.951071
4456.491382
4454.456712
4454.245174
4452.383804
4405.191254
4462.610859
4439.366225
4449.664050
4495.949561
4405.150346
4421.468819
4435.882227
4435.425798
4402.013713
4441.609382
4446.462296
4407.323104
4415.694698
4441.246022
4422.518961
4416.038910
4453.416329
4395.726879
4448.933287
4449.548812
4416.068135
4392.785451
4447.647506
4452.834184
4388.079698
4441.171969
4439.390122
4434.770200
4469.125664
4449.614629
4454.051966
4463.250679
4431.728779
4477.775493
4413.453227
4408.939097
4431.683672
4427.778684
4409.162489
4441.057727
4446.052920
4398.066775
4438.587319
4449.097342
4408.557486
4423.171535
4438.846062
4410.109107
4426.895012
4449.049886
4392.049431
4443.438609
4433.640736
4422.131753
4411.685322
4456.816227
4458.120970
4408.740695
4464.807715
4433.836811
4457.591626
4449.330357
4434.736430
4419.026611
4424.821323
4414.069244
4414.683851
4423.717520
4425.279363
4438.936923
4437.054671
4399.157481
4443.754723
4454.345438
4394.657252
4437.429429
4445.062572
4408.100317
4425.712361
4430.148654
4412.227361
4437.616739
4452.020098
4405.490030
4438.355551
4431.041259
4426.133045
4417.913030
4452.885135
4425.533329
4460.535913
4446.517248
4447.916231
4467.658071
4433.231742
4406.482428
4431.682687
4408.887731
4428.544737
4430.081156
4426.074195
4410.996802
4443.368134
4443.970386
4392.969495
4446.282859
4459.123083
4394.627900
4434.258869
4442.788986
4409.125870
4422.114585
4426.823199
4406.244911
4449.863815
4447.435865
4393.388450
4435.451242
4433.732522
4460.191063
4426.325880
4437.245031
4434.438085
4434.277270
4452.620971
4435.318673
4432.926332
4449.234329
4407.660085
4424.815684
4425.686354
4426.028480
4441.012560
4431.396947
4403.005722
4445.966621
4446.770695
4387.996681
4449.371998
4456.960388
4393.947013
4433.134321
4434.787156
4418.476745
4416.856171
4441.576919
4406.660546
4453.384593
4443.539748
4411.444348
4427.207414
4461.419150
4456.976203
4415.230561
4478.141200
4405.845370
4464.910238
4434.375890
4408.815814
4416.731712
4423.951686
4439.345374
4433.595276
4420.191857
4418.540559
4445.705336
4437.299089
4397.545589
4448.125084
4446.126307
4388.749883
4452.768863
4450.389811
4393.723406
4432.881540
4425.850181
4416.780544
4423.048756
4448.310161
4392.979587
4465.847973
4422.404746
4417.391661
4447.835966
4443.291117
4457.945340
4453.726401
4463.184447
4407.308945
4447.221380
4395.066345
4436.469201
4430.258877
4413.753269
4437.279651
4441.418894
4419.421896
4415.714577
4446.739550
4440.729352
4393.036927
4449.464608
4448.413341
4391.045816
4457.392407
4439.293417
4400.669382
4447.110789
4419.982330
4414.022240
4433.848095
4448.169859
4396.046144
4457.129778
4448.834530
4416.727690
4466.145336
4415.627447
4429.698547
4470.189611
4425.181753
4515.849965
4429.109692
4422.981583
4442.980193
4441.477908
4409.432639
4433.205010
4443.639848
4421.286755
4412.551790
4448.682587
4440.466438
4385.962713
4448.626088
4449.573622
4396.114353
4453.635388
4412.234810
4414.307167
4442.650189
4425.152112
4420.518594
4454.522688
4441.925657
4400.954344
4438.365573
4425.259114
4475.101952
4432.328767
4459.110698
4439.766676
4459.241792
4433.005130
4432.046248
4433.066799
4409.206734
4442.997520
4451.469361
4405.431310
4431.262172
4445.693202
4421.388155
4411.489160
4449.120457
4443.553586
4379.535844
4443.023568
4454.618028
4399.049397
4451.185382
4407.225595
4416.871966
4437.778267
4447.349179
4422.264353
4461.747413
4431.489739
4455.136717
4449.065113
4410.889764
4482.407589
4442.442025
4421.637740
4428.178842
4426.886685
4426.918510
4443.553682
4440.249121
4402.054761
4445.687848
4453.496149
4403.406853
4431.970753
4447.093785
4418.079746
4409.496354
4452.104202
4448.539853
4372.282072
4447.463719
4457.496208
4395.730248
4456.507308
4411.304145
4420.213160
4444.527755
4438.541742
4414.557340
4409.909339
4466.219789
4463.732134
4457.088307
4456.606712
4465.257617
4427.048795
4439.362492
4438.102038
4422.563465
4420.963764
4446.272089
4447.057707
4398.962228
4445.160512
4455.792096
4403.130189
4436.719094
4450.382686
4414.883983
4408.427330
4455.246806
4458.084815
4390.006001
4464.199626
4438.449025
4389.132071
4456.841647
4438.356180
4427.921882
4467.933501
4462.290940
4419.922168
4449.905403
4451.041542
4459.570761
4464.245274
4442.444480
4432.085364
4418.303734
4437.927473
4442.658380
4426.784944
4414.469978
4450.778509
4451.943331
4395.522889
4445.394433
4457.096796
4403.924463
4441.383126
4449.553209
4423.366481
4402.184641
4447.449906
4469.552652
4405.321263
4447.202329
4420.424604
4426.380918
4463.390939
4436.869901
4430.449141
4456.478048
4450.391960
4461.746255
4444.576043
4456.057157
4433.570536
4423.838129
4442.758831
4445.064763
4415.128507
4433.614084
4445.836790
4432.040544
4411.127131
4452.754087
4456.108057
4395.076976
4448.364283
4462.248319
4403.045399
4440.902526
4451.907395
4445.208154
4384.826509
4442.671475
4477.093300
4368.544248
4448.672560
4413.322107
4445.639486
4458.108083
4448.818927
4444.387543
4460.666592
4455.693942
4456.055993
4433.787280
4434.414608
4437.813953
4409.079102
4447.115953
4449.353685
4413.927411
4428.680007
4447.932200
4438.733265
4404.131447
4452.854999
4459.558485
4395.501428
4459.279585
4464.099695
4392.519860
4443.869895
4441.261380
4454.679239
4407.631541
4453.454712
4422.283910
4424.925371
4466.776006
4421.786505
4461.984596
4449.878443
4454.413513
4450.558549
4454.422950
4432.698529
4429.617259
4426.820523
4443.096049
4446.146550
4404.204164
4449.452880
4450.950424
4412.812329
4425.082192
4450.718515
4445.095377
4395.054077
4451.731267
4463.066757
4401.936300
4466.954138
4436.624784
4399.977816
4456.727005
4483.906261
4448.440234
4404.239343
4456.600528
4414.220352
4465.241529
4440.448680
4440.537663
4457.840759
4448.105272
4451.773705
4431.914358
4437.856486
4437.270962
4429.790561
4418.746194
4447.899438
4453.649082
4400.217398
4446.613232
4451.623232
4413.552784
4422.754351
4453.938376
4450.994571
4388.995806
4454.015315
4467.021145
4408.224089
4466.670275
4391.361606
4460.621377
4410.913176
4443.629579
4452.433657
4432.347852
4460.459859
4416.255066
4464.865549
4428.127666
4465.704504
4451.265927
4444.332764
4434.419760
4422.892461
4436.879787
4441.628006
4436.283992
4410.443307
4453.427082
4460.433083
4396.725157
4443.028640
4451.137218
4415.597604
4418.506854
4451.520259
4455.314801
4384.769263
4465.476713
4460.076499
4388.721646
4444.473309
4452.994366
4443.467399
4404.373618
4463.082809
4428.329192
4462.983056
4447.552677
4449.953256
4448.762331
4450.016697
4434.219122
4424.331018
4440.863945
4444.606215
4420.933108
4431.955553
4445.429048
4439.846399
4403.336396
4456.359356
4464.434851
4396.914527
4437.950518
4452.958923
4419.594005
4409.902907
4446.548391
4460.599704
4400.053138
4462.101381
4434.213923
4390.707629
4443.679921
4449.228211
4445.077106
4435.764505
4469.338603
4408.512978
4467.998933
4440.614586
4454.203138
4430.071437
4437.593955
4442.531096
4412.532266
4442.753164
4445.647669
4422.760340
4428.020261
4446.407468
4446.776854
4395.213201
4458.231558
4466.131841
4396.640739
4431.370696
4452.951558
4435.039200
4394.993279
4450.361334
4475.094742
4412.201788
4459.848210
4427.615894
4426.472971
4445.266578
4436.924810
4451.378927
4442.576040
4462.169950
4439.521991
4455.830987
4440.099616
4437.463642
4420.150152
4443.723520
4448.081429
4410.274667
4439.900026
4446.380767
4427.181077
4422.256504
4447.066361
4453.054234
4392.971198
4458.590530
4469.082104
4393.221924
4428.417947
4455.464426
4440.698752
4384.565481
4463.295034
4458.522957
4410.493849
4428.941284
4451.227940
4431.226237
4459.117247
4437.157420
4456.940638
4442.679984
4448.693019
4435.827469
4426.784416
4436.461961
4443.099452
4412.480815
4447.631496
4453.880439
4408.341211
4434.055341
4446.795957
4434.352052
4410.106115
4446.416093
4455.943930
4396.426529
4461.840360
4463.616514
4389.705220
4439.664664
4447.647095
4462.018166
4386.374225
4455.563920
4453.649654
4398.890349
4451.241982
4426.938878
4468.701426
4425.552666
4458.089950
4446.779427
4433.207143
4440.486442
4438.593599
4421.508681
4437.911065
4447.460592
4403.813452
4454.017775
4457.988173
4404.209516
4429.487679
4448.275343
4442.080183
4398.359472
4445.432808
4458.088985
4403.042970
4465.494235
4443.505203
4392.289558
4427.105706
4452.800044
4471.444034
4395.220916
4454.039098
4449.369694
4437.516003
4450.685811
4436.412939
4453.392191
4446.133254
4442.454544
4437.464097
4421.292101
4444.243275
4439.212723
4416.680652
4440.488794
4449.808643
4398.755022
4455.942447
4458.342888
4401.901287
4426.781113
4450.038670
4450.621996
4388.903118
4447.502658
4464.604965
4402.920530
4472.065266
4435.897944
4411.003375
4421.721753
4452.406478
4458.843851
4419.037441
4430.299980
4442.906964
4453.092664
4445.460112
4445.888877
4436.999981
4424.662942
4443.367130
4441.892326
4416.643323
4442.029088
4439.840267
4412.636277
4445.164933
4455.845737
4396.451428
4453.985622
4453.222552
4404.380854
4422.981250
4450.055961
4458.703614
4386.170043
4458.445680
4462.234774
4394.533652
4457.098012
4442.737944
4440.741958
4417.376120
4450.545628
4443.733109
4445.714434
4447.495105
4445.209545
4448.795031
4433.067615
4439.457842
4442.892532
4416.856733
4444.393177
4443.968194
4415.546484
4441.275045
4436.816689
4405.744644
4450.120991
4460.474851
4398.532354
4448.965317
4444.432298
4416.261185
4415.257231
4446.377740
4464.443053
4390.329069
4466.680054
4459.049023
4386.211121
4437.890345
4449.347465
4441.083059
4431.173620
4447.693859
4447.546246
4445.938388
4447.717361
4440.287760
4436.007346
4420.245565
4445.495958
4447.683512
4412.753485
4443.445054
4437.932113
4418.942061
4442.573549
4438.793080
4398.262250
4453.146470
4460.840166
4400.424790
4439.108187
4442.137706
4435.202771
4399.847362
4447.389134
4461.688458
4393.816775
4461.878188
4443.463402
4411.200345
4437.577333
4449.352122
4440.611777
4440.533664
4447.509846
4445.614656
4437.627928
4431.429236
4444.397290
4441.431672
4415.452671
4447.363710
4448.256812
4412.101810
4441.160090
4428.103228
4418.901600
4446.284173
4447.861286
4394.773424
4455.369351
4459.282951
4397.782057
4435.833857
4445.635181
4449.628924
4388.567247
4455.074276
4456.899718
4393.088275
4445.633872
4443.668314
4434.756755
4445.433276
4450.323484
4446.863926
4446.282700
4438.196194
4433.731865
4433.240275
4422.944229
4444.612018
4446.542044
4412.399020
4446.224996
4440.688577
4421.211996
4441.877749
4422.737132
4410.796076
4449.428657
4455.235492
4397.413199
4458.015259
4448.149900
4399.799484
4438.476807
4444.867571
4459.200149
4388.171591
4460.202296
4446.887499
4401.160344
4447.600092
4434.747562
4453.474037
4440.847153
4448.904165
4435.489665
4429.146079
4434.994085
4441.939529
4435.533667
4416.315198
4447.414579
4448.556691
4411.787006
4441.184427
4428.190706
4429.732090
4444.697986
4427.832256
4403.116846
4447.476506
4456.341471
4404.950110
4451.652129
4429.372485
4414.366129
4423.713380
4442.917562
4456.331134
4402.184446
4443.664941
4445.795829
4434.460620
4452.930562
4441.531533
4446.117900
4429.577549
4441.440146
4437.619962
4424.457628
4426.415460
4445.052709
4438.422085
4411.991348
4449.098764
4442.778497
4418.685686
4438.968670
4417.771045
4427.482298
4444.449340
4442.427502
4395.174332
4448.318591
4453.497946
4411.258070
4441.753164
4434.844547
4439.159379
4411.934681
4446.457885
4448.193829
4422.735596
4446.707598
4441.311271
4446.460667
4447.661838
4438.772205
4438.798816
4417.525352
4443.738784
4442.488270
4421.532021
4419.292788
4447.765184
4444.577360
4411.026212
4445.078536
4430.723097
4430.570713
4443.351828
4413.768489
4419.150411
4448.097651
4453.031340
4395.110187
4448.688855
4448.155587
4399.781956
4441.898470
4444.824066
4436.627251
4420.843239
4446.510805
4441.840595
4441.628983
4449.739462
4444.519109
4435.400659
4425.496251
4439.324112
4445.139007
4412.211198
4440.598718
4444.407310
4419.833831
4413.341074
4452.148495
4444.907397
4414.771655
4441.632891
4419.132421
4439.738111
4442.027060
4420.923710
4412.637787
4450.155439
4449.752997
4408.500968
4442.261290
4433.900269
4414.075043
4439.702546
4446.694344
4434.661233
4440.326601
4445.096019
4448.882082
4441.534141
4431.837320
4437.940863
4439.205433
4416.449054
4438.681669
4448.198673
4410.813124
4434.275929
4445.177985
4424.336724
4412.621444
4447.674987
4438.801296
4421.679088
4441.749133
4415.116197
4435.978270
4440.362464
4437.094313
4406.246254
4443.570638
4447.469201
4415.478275
4430.251623
4441.394271
4434.334718
4438.785550
4448.317963
4443.250052
4445.446169
4447.072753
4437.260056
4432.598669
4421.717864
4439.165152
4444.839402
4408.894512
4443.632535
4445.496466
4413.482905
4420.381914
4446.429606
4435.702937
4411.756430
4444.114782
4425.915749
4431.239551
4440.284122
4415.937478
4425.454389
4446.054215
4441.103554
4407.045720
4438.310483
4443.047910
4416.785626
4433.820421
4444.565515
4440.967992
4440.553995
4448.371682
4440.991747
4432.547921
4428.134425
4442.716886
4435.714384
4416.813872
4437.441216
4448.186188
4405.345464
4446.382043
4447.438583
4414.441318
4412.462238
4449.108423
4438.859758
4413.821469
4441.632765
4417.077909
4436.846627
4435.739370
4422.756963
4419.138737
4448.745617
4439.637029
4417.748190
4429.166338
4442.366241
4432.772114
4441.105586
4442.601239
4446.982874
4443.667172
4434.995053
4431.493264
4433.079896
4419.227319
4443.320571
4440.780414
4409.981534
4438.909252
4445.936566
4404.102057
4444.424302
4445.520195
4415.470261
4412.579389
4449.170948
4436.541099
4418.085904
4442.510403
4416.924227
4433.722255
4436.487869
4433.864894
4418.556706
4446.968967
4436.229121
4430.514631
4430.811305
4440.639832
4448.266577
4441.236098
4446.576330
4431.397627
4427.067667
4431.068203
4440.440076
4433.207173
4414.395283
4444.089233
4442.583601
4408.336868
4439.475344
4445.992385
4406.504054
4437.848809
4443.199183
4417.909229
4416.713961
4445.696150
4429.445715
4424.019842
4440.347939
4420.817539
4428.600871
4441.581014
4438.180485
4425.759863
4443.784877
4435.585603
4442.101639
4442.656828
4445.047864
4438.955428
4425.452261
4438.866895
4436.276838
4423.576702
4424.675673
4441.795694
4438.137052
4409.715531
4443.282226
4441.939154
4406.991967
4441.942893
4445.520823
4411.906717
4429.805342
4440.692289
4423.832379
4420.541665
4441.309714
4424.704449
4428.041342
4436.141238
4428.206579
4423.718285
4443.786661
4439.242452
4433.713237
4443.701949
4438.981708
4446.502561
4444.379606
4434.410131
4435.969534
4415.554342
4439.554922
4441.828917
4422.160237
4418.016096
4445.194448
4442.748592
4409.392234
4441.171597
4441.980580
4407.757558
4443.281084
4444.846941
4415.661039
4421.995262
4439.591783