# vtk DataFile Version 2.0
mfree iwf
ASCII

DATASET UNSTRUCTURED_GRID
POINTS 6231 float
0.000000 0.000300 0.000000
0.000000 0.000310 0.000000
0.000000 0.000320 0.000000
0.000000 0.000330 0.000000
0.000000 0.000340 0.000000
0.000000 0.000350 0.000000
0.000001 0.000360 0.000000
0.000001 0.000370 0.000000
0.000001 0.000380 0.000000
0.000001 0.000390 0.000000
0.000001 0.000400 0.000000
0.000001 0.000410 0.000000
0.000001 0.000420 0.000000
0.000001 0.000430 0.000000
0.000001 0.000440 0.000000
0.000002 0.000450 0.000000
0.000002 0.000460 0.000000
0.000002 0.000471 0.000000
0.000002 0.000480 0.000000
0.000002 0.000492 0.000000
0.000006 0.000501 0.000000
0.000649 0.000872 0.000000
0.000714 0.000921 0.000000
0.000664 0.000883 0.000000
0.000726 0.000928 0.000000
0.000747 0.000937 0.000000
0.000794 0.000949 0.000000
0.000803 0.000949 0.000000
0.000815 0.000946 0.000000
0.000828 0.000945 0.000000
0.000860 0.000950 0.000000
0.000010 0.000300 0.000000
0.000010 0.000310 0.000000
0.000010 0.000320 0.000000
0.000010 0.000330 0.000000
0.000010 0.000340 0.000000
0.000010 0.000350 0.000000
0.000010 0.000360 0.000000
0.000011 0.000370 0.000000
0.000011 0.000380 0.000000
0.000011 0.000390 0.000000
0.000011 0.000400 0.000000
0.000011 0.000410 0.000000
0.000011 0.000420 0.000000
0.000011 0.000430 0.000000
0.000011 0.000440 0.000000
0.000012 0.000450 0.000000
0.000012 0.000460 0.000000
0.000012 0.000472 0.000000
0.000013 0.000478 0.000000
0.000009 0.000492 0.000000
0.000013 0.000498 0.000000
0.000766 0.000937 0.000000
0.000780 0.000940 0.000000
0.000788 0.000942 0.000000
0.000795 0.000941 0.000000
0.000812 0.000937 0.000000
0.000823 0.000938 0.000000
0.000838 0.000936 0.000000
0.000848 0.000939 0.000000
0.000855 0.000938 0.000000
0.000857 0.000946 0.000000
0.000020 0.000300 0.000000
0.000020 0.000310 0.000000
0.000020 0.000320 0.000000
0.000020 0.000330 0.000000
0.000021 0.000340 0.000000
0.000020 0.000350 0.000000
0.000021 0.000360 0.000000
0.000021 0.000370 0.000000
0.000020 0.000380 0.000000
0.000021 0.000390 0.000000
0.000021 0.000400 0.000000
0.000022 0.000410 0.000000
0.000020 0.000420 0.000000
0.000022 0.000431 0.000000
0.000020 0.000439 0.000000
0.000024 0.000451 0.000000
0.000021 0.000460 0.000000
0.000022 0.000470 0.000000
0.000021 0.000481 0.000000
0.000024 0.000494 0.000000
0.000020 0.000497 0.000000
0.000736 0.000920 0.000000
0.000763 0.000931 0.000000
0.000773 0.000935 0.000000
0.000778 0.000933 0.000000
0.000788 0.000928 0.000000
0.000803 0.000934 0.000000
0.000830 0.000932 0.000000
0.000845 0.000934 0.000000
0.000853 0.000927 0.000000
0.000861 0.000925 0.000000
0.000030 0.000300 0.000000
0.000030 0.000310 0.000000
0.000030 0.000320 0.000000
0.000031 0.000330 0.000000
0.000030 0.000340 0.000000
0.000030 0.000349 0.000000
0.000030 0.000360 0.000000
0.000030 0.000370 0.000000
0.000031 0.000380 0.000000
0.000031 0.000390 0.000000
0.000031 0.000400 0.000000
0.000031 0.000411 0.000000
0.000031 0.000420 0.000000
0.000031 0.000430 0.000000
0.000032 0.000440 0.000000
0.000030 0.000450 0.000000
0.000032 0.000459 0.000000
0.000036 0.000473 0.000000
0.000029 0.000478 0.000000
0.000033 0.000488 0.000000
0.000032 0.000497 0.000000
0.000063 0.000500 0.000000
0.000756 0.000925 0.000000
0.000773 0.000919 0.000000
0.000800 0.000925 0.000000
0.000810 0.000919 0.000000
0.000814 0.000930 0.000000
0.000820 0.000924 0.000000
0.000831 0.000923 0.000000
0.000838 0.000923 0.000000
0.000861 0.000917 0.000000
0.000040 0.000300 0.000000
0.000040 0.000310 0.000000
0.000040 0.000320 0.000000
0.000040 0.000329 0.000000
0.000040 0.000340 0.000000
0.000041 0.000351 0.000000
0.000041 0.000360 0.000000
0.000041 0.000370 0.000000
0.000041 0.000380 0.000000
0.000040 0.000390 0.000000
0.000042 0.000399 0.000000
0.000040 0.000410 0.000000
0.000043 0.000420 0.000000
0.000040 0.000431 0.000000
0.000043 0.000439 0.000000
0.000043 0.000450 0.000000
0.000043 0.000460 0.000000
0.000036 0.000469 0.000000
0.000045 0.000477 0.000000
0.000043 0.000496 0.000000
0.000040 0.000498 0.000000
0.000577 0.000713 0.000000
0.000765 0.000918 0.000000
0.000784 0.000919 0.000000
0.000791 0.000915 0.000000
0.000798 0.000923 0.000000
0.000820 0.000915 0.000000
0.000843 0.000913 0.000000
0.000843 0.000903 0.000000
0.000851 0.000918 0.000000
0.000861 0.000908 0.000000
0.000050 0.000300 0.000000
0.000050 0.000310 0.000000
0.000050 0.000320 0.000000
0.000049 0.000331 0.000000
0.000052 0.000340 0.000000
0.000049 0.000348 0.000000
0.000051 0.000360 0.000000
0.000050 0.000371 0.000000
0.000052 0.000379 0.000000
0.000050 0.000390 0.000000
0.000052 0.000400 0.000000
0.000049 0.000411 0.000000
0.000053 0.000420 0.000000
0.000051 0.000430 0.000000
0.000053 0.000440 0.000000
0.000047 0.000451 0.000000
0.000054 0.000458 0.000000
0.000053 0.000469 0.000000
0.000056 0.000482 0.000000
0.000049 0.000488 0.000000
0.000050 0.000498 0.000000
0.000752 0.000931 0.000000
0.000711 0.000911 0.000000
0.000779 0.000914 0.000000
0.000796 0.000904 0.000000
0.000809 0.000909 0.000000
0.000825 0.000909 0.000000
0.000817 0.000902 0.000000
0.000834 0.000911 0.000000
0.000850 0.000906 0.000000
0.000858 0.000897 0.000000
0.000060 0.000300 0.000000
0.000060 0.000310 0.000000
0.000060 0.000321 0.000000
0.000060 0.000329 0.000000
0.000060 0.000340 0.000000
0.000059 0.000352 0.000000
0.000063 0.000360 0.000000
0.000059 0.000368 0.000000
0.000062 0.000381 0.000000
0.000060 0.000390 0.000000
0.000063 0.000400 0.000000
0.000060 0.000409 0.000000
0.000063 0.000418 0.000000
0.000058 0.000431 0.000000
0.000065 0.000439 0.000000
0.000061 0.000450 0.000000
0.000065 0.000460 0.000000
0.000055 0.000472 0.000000
0.000065 0.000475 0.000000
0.000068 0.000486 0.000000
0.000058 0.000496 0.000000
0.000742 0.000928 0.000000
0.000756 0.000916 0.000000
0.000774 0.000901 0.000000
0.000787 0.000904 0.000000
0.000803 0.000897 0.000000
0.000811 0.000891 0.000000
0.000839 0.000893 0.000000
0.000829 0.000899 0.000000
0.000848 0.000894 0.000000
0.000857 0.000888 0.000000
0.000070 0.000300 0.000000
0.000070 0.000310 0.000000
0.000070 0.000320 0.000000
0.000070 0.000331 0.000000
0.000071 0.000340 0.000000
0.000071 0.000349 0.000000
0.000070 0.000358 0.000000
0.000067 0.000373 0.000000
0.000076 0.000376 0.000000
0.000069 0.000389 0.000000
0.000073 0.000400 0.000000
0.000069 0.000412 0.000000
0.000074 0.000421 0.000000
0.000069 0.000430 0.000000
0.000075 0.000439 0.000000
0.000066 0.000451 0.000000
0.000077 0.000458 0.000000
0.000073 0.000470 0.000000
0.000076 0.000486 0.000000
0.000068 0.000495 0.000000
0.000076 0.000496 0.000000
0.000573 0.000687 0.000000
0.000745 0.000915 0.000000
0.000767 0.000907 0.000000
0.000789 0.000887 0.000000
0.000804 0.000906 0.000000
0.000820 0.000891 0.000000
0.000829 0.000892 0.000000
0.000827 0.000880 0.000000
0.000846 0.000884 0.000000
0.000855 0.000878 0.000000
0.000080 0.000300 0.000000
0.000080 0.000310 0.000000
0.000080 0.000320 0.000000
0.000080 0.000330 0.000000
0.000080 0.000340 0.000000
0.000082 0.000352 0.000000
0.000079 0.000362 0.000000
0.000080 0.000370 0.000000
0.000079 0.000383 0.000000
0.000079 0.000392 0.000000
0.000087 0.000396 0.000000
0.000079 0.000408 0.000000
0.000084 0.000417 0.000000
0.000079 0.000430 0.000000
0.000087 0.000444 0.000000
0.000077 0.000447 0.000000
0.000086 0.000463 0.000000
0.000074 0.000470 0.000000
0.000087 0.000473 0.000000
0.000085 0.000482 0.000000
0.000084 0.000495 0.000000
0.000733 0.000925 0.000000
0.000705 0.000915 0.000000
0.000774 0.000889 0.000000
0.000784 0.000899 0.000000
0.000798 0.000889 0.000000
0.000805 0.000880 0.000000
0.000815 0.000882 0.000000
0.000836 0.000880 0.000000
0.000844 0.000874 0.000000
0.000853 0.000868 0.000000
0.000090 0.000300 0.000000
0.000090 0.000310 0.000000
0.000089 0.000320 0.000000
0.000090 0.000329 0.000000
0.000091 0.000340 0.000000
0.000089 0.000348 0.000000
0.000090 0.000359 0.000000
0.000091 0.000368 0.000000
0.000091 0.000379 0.000000
0.000092 0.000388 0.000000
0.000086 0.000406 0.000000
0.000094 0.000409 0.000000
0.000089 0.000425 0.000000
0.000096 0.000425 0.000000
0.000088 0.000435 0.000000
0.000097 0.000455 0.000000
0.000086 0.000454 0.000000
0.000097 0.000471 0.000000
0.000106 0.000480 0.000000
0.000089 0.000494 0.000000
0.000094 0.000495 0.000000
0.000582 0.000730 0.000000
0.000740 0.000910 0.000000
0.000727 0.000914 0.000000
0.000758 0.000907 0.000000
0.000786 0.000877 0.000000
0.000811 0.000872 0.000000
0.000824 0.000874 0.000000
0.000832 0.000869 0.000000
0.000842 0.000865 0.000000
0.000850 0.000858 0.000000
0.000100 0.000300 0.000000
0.000100 0.000310 0.000000
0.000101 0.000319 0.000000
0.000099 0.000331 0.000000
0.000101 0.000341 0.000000
0.000100 0.000351 0.000000
0.000101 0.000361 0.000000
0.000099 0.000372 0.000000
0.000101 0.000380 0.000000
0.000100 0.000392 0.000000
0.000100 0.000399 0.000000
0.000104 0.000407 0.000000
0.000100 0.000418 0.000000
0.000100 0.000436 0.000000
0.000110 0.000443 0.000000
0.000097 0.000445 0.000000
0.000108 0.000460 0.000000
0.000098 0.000467 0.000000
0.000095 0.000481 0.000000
0.000106 0.000491 0.000000
0.000101 0.000494 0.000000
0.000669 0.000887 0.000000
0.000677 0.000893 0.000000
0.000700 0.000911 0.000000
0.000784 0.000887 0.000000
0.000799 0.000878 0.000000
0.000801 0.000868 0.000000
0.000823 0.000864 0.000000
0.000814 0.000859 0.000000
0.000837 0.000858 0.000000
0.000847 0.000849 0.000000
0.000110 0.000300 0.000000
0.000110 0.000310 0.000000
0.000109 0.000321 0.000000
0.000111 0.000329 0.000000
0.000110 0.000339 0.000000
0.000111 0.000350 0.000000
0.000109 0.000359 0.000000
0.000112 0.000368 0.000000
0.000111 0.000378 0.000000
0.000111 0.000390 0.000000
0.000112 0.000399 0.000000
0.000110 0.000414 0.000000
0.000116 0.000422 0.000000
0.000107 0.000427 0.000000
0.000112 0.000433 0.000000
0.000106 0.000449 0.000000
0.000115 0.000461 0.000000
0.000111 0.000471 0.000000
0.000116 0.000480 0.000000
0.000111 0.000493 0.000000
0.000119 0.000491 0.000000
0.000624 0.000833 0.000000
0.000587 0.000751 0.000000
0.000734 0.000904 0.000000
0.000757 0.000895 0.000000
0.000748 0.000891 0.000000
[...]
POINT_DATA 6231
SCALARS density float 1
LOOKUP_TABLE default
4412.900252
4425.005860
4421.603533
4424.862772
4427.091461
4426.045641
4423.523380
4423.252290
4428.247636
4429.594155
4426.016771
4429.956025
4427.447784
4429.579964
4432.138052
4442.512515
4424.059773
4431.319869
4412.637466
4424.404410
4411.405394
4423.703418
4428.673133
4433.037874
4442.010714
4420.051367
4398.447193
4430.564464
4450.417459
4453.310082
4417.881751
4414.602417
4420.270384
4429.292987
4426.329024
4419.368405
4424.332857
4428.612402
4431.995930
4428.173655
4429.900841
4425.110532
4436.110300
4426.309715
4439.869208
4415.057812
4423.984798
4409.134208
4447.189297
4461.346202
4459.616211
4416.252826
4408.976742
4414.077741
4434.343563
4504.550202
4393.866361
4400.564476
4425.773619
4405.415151
4457.787586
4444.676487
4418.575294
4431.071346
4427.556382
4418.240845
4436.214840
4429.726327
4420.374643
4432.450862
4415.205829
4432.875818
4427.861960
4430.352808
4415.300378
4439.528776
4412.880819
4483.601868
4400.106251
4450.736147
4352.542321
4449.970223
4420.969399
4421.035167
4426.744210
4413.151585
4508.337471
4328.118022
4367.362292
4416.353680
4418.782776
4420.430536
4399.571009
4426.128053
4429.452759
4419.345247
4434.764985
4434.162633
4425.009858
4428.761264
4432.668997
4429.513648
4439.093278
4408.839897
4443.377663
4421.160187
4446.988160
4399.538538
4434.549527
4386.828970
4457.694201
4369.382647
4554.351751
4370.682008
4430.320940
4456.454182
4432.972215
4484.753883
4342.026166
4486.200794
4467.155807
4406.109723
4482.387921
4441.077269
4433.052025
4428.399106
4432.187251
4443.351703
4411.576276
4441.215760
4434.024978
4426.850159
4421.387481
4432.455292
4416.598160
4447.987724
4403.155687
4442.571641
4422.491966
4444.649003
4392.604771
4509.222513
4310.233235
4419.967728
4383.906055
4442.738885
4421.518262
4429.147043
4422.242455
4479.828016
4429.850249
4405.083052
4490.361429
4438.831626
4414.727336
4427.207329
4425.439915
4426.089602
4422.208489
4440.761120
4445.999513
4407.450249
4442.424120
4425.475990
4429.733174
4431.442871
4427.781996
4425.871212
4451.068572
4374.873730
4481.144047
4366.604560
4470.503841
4358.196812
4536.703405
4382.777363
4445.326883
4426.767332
4449.123604
4409.891993
4442.421715
4442.829969
4387.486523
4399.544718
4414.568362
4416.541701
4426.894950
4436.559683
4435.545366
4435.079377
4425.717587
4419.422717
4442.540599
4443.446623
4401.777144
4442.136972
4416.995486
4437.481854
4415.030683
4430.022952
4425.887625
4459.191807
4404.792808
4516.785389
4384.657396
4481.767338
4432.244931
4418.410678
4397.660786
4415.653135
4461.097942
4466.196677
4428.174548
4402.688316
4424.035720
4422.572206
4426.297946
4428.823365
4426.092356
4413.234459
4427.687753
4434.153058
4433.284841
4425.022524
4401.722551
4442.299507
4447.237277
4394.004297
4431.238103
4417.558001
4439.240971
4427.780844
4451.818186
4440.597747
4447.771692
4446.255699
4412.486065
4391.671297
4459.779273
4449.467213
4435.845925
4451.882198
4436.718266
4431.707456
4455.038947
4440.389664
4452.517478
4410.217883
4426.591788
4428.666656
4439.890253
4418.357517
4421.020120
4424.872363
4424.365221
4437.208885
4430.263624
4424.342954
4413.034021
4437.497807
4402.511276
4440.440457
4465.583489
4393.491884
4456.199559
4449.063470
4367.816071
4463.657440
4415.671308
4435.422835
4417.415737
4415.609280
4439.063425
4370.423846
4470.484155
4418.763776
4400.337089
4436.979986
4436.480022
4431.879313
4424.869571
4429.340498
4419.278672
4427.305113
4439.547800
4429.810390
4423.444986
4415.494793
4450.206735
4448.401869
4405.980363
4433.420475
4451.736034
4419.867683
4384.612508
4436.996433
4434.765950
4427.176091
4425.940203
4415.052546
4426.655752
4434.396101
4422.525583
4474.621119
4400.517158
4394.286470
4448.733362
4434.424292
4431.891267
4417.300256
4429.067934
4426.531595
4428.314192
4439.947135
4427.102510
4418.066769
4430.447738
4432.837592
4437.021907
4416.843027
4427.390918
4444.371029
4425.622798
4385.048117
4445.385786
4448.681917
4418.837568
4461.212843
4415.461002
4439.029997
4419.561601
4423.638689
4430.626677
4421.161431
4438.213472
4457.920139
4370.035120
4398.622872
4473.602443
4450.882835
4420.478834
4425.930996
4441.640960
4432.166449
4423.045261
4428.354252
4433.003448
4438.045658
4432.124470
4421.518696
4432.487296
4427.510067
4440.142054
4396.321372
4445.434403
4434.807943
4434.912778
4462.266083
4394.902681
4461.142931
4402.369404
4409.751824
4431.893822
4429.674777
4438.024514
4402.067436
4432.726320
4470.295339
4451.968799
4412.566276
4424.924424
4453.324211
4436.297662
4428.122294
4417.487780
4437.507827
4429.187904
4425.019056
4409.873463
4442.118166
4411.155153
4446.855299
4401.021715
4427.212712
4452.638609
4432.261543
4432.164823
4376.480496
4448.362839
4394.742532
4434.275701
4432.466813
4392.923678
4439.357267
4422.187041
4429.772202
4449.932725
4452.413954
4418.297586
4340.071190
4461.768679
4389.695485
4416.796059
4435.258537
4435.749656
4434.573025
4442.949469
4412.138627
4437.594810
4432.751495
4436.069124
4420.617479
4432.829520
4445.430034
4404.285361
4425.779341
4449.832764
4413.337177
4441.008930
4398.737014
4448.362420
4500.263483
4418.441376
4436.710122
4434.493664
4415.977375
4418.826162
4436.094872
4426.521643
4442.993598
4474.831084
4475.493273
4486.391133
4451.841724
4433.911817
4435.463167
4427.283666
4412.265291
4441.529640
4420.932311
4427.177373
4412.035484
4440.564536
4408.247521
4426.873179
4444.739280
4423.793237
4402.368006
4448.842269
4378.393265
4420.430381
4510.782703
4569.332792
4383.851565
4375.250621
4409.738845
4419.826454
4450.799279
4452.643984
4384.085459
4454.733364
4407.793608
4402.842655
4406.890724
4448.421700
4434.853428
4432.119420
4435.603000
4441.873791
4429.750858
4414.716634
4426.606742
4449.417818
4425.649545
4404.002036
4453.734638
4426.798840
4438.563413
4427.814540
4456.234655
4414.021833
4486.670118
4354.276439
4328.302397
4487.096571
4396.349227
4413.776331
4438.845913
4425.672787
4489.166954
4440.731578
4412.240431
4440.926726
4390.489245
4425.672614
4412.666751
4433.835991
4430.059096
4429.001828
4415.533933
4434.269439
4429.669011
4418.068909
4403.454048
4404.716148
4453.135088
4430.755112
4400.565416
4444.818366
4388.842854
4432.154247
4453.549246
4393.255012
4490.359071
4480.578215
4421.981922
4405.414732
4424.083552
4446.026900
4421.396939
4381.794003
4449.590532
4447.253046
4417.536579
4400.094531
4432.576695
4429.364387
4432.269246
4427.677041
4437.949466
4435.159735
4438.907223
4422.086362
4428.943796
4442.124415
4424.436643
4417.547424
4450.279613
4427.810193
4418.924995
4462.700456
4419.585578
4435.535183
4385.485928
4490.324422
4349.763198
4369.014629
4425.442554
4426.939619
4439.037983
4441.130567
4401.654182
4437.345158
4420.387215
4446.963019
4464.208449
4437.549811
4437.703737
4432.663641
4429.319653
4426.659871
4431.794107
4425.754476
4434.097150
4429.091171
4408.819576
4442.079969
4449.600064
4406.164530
4437.901277
4413.170399
4423.412937
4400.674408
4464.150107
4353.773019
4462.900390
4402.364615
4445.135078
4390.989724
4431.519890
4431.384145
4444.862210
4459.336896
4405.949096
4461.252610
4455.001169
4411.788074
4413.325139
4422.843440
4431.792736
4427.906365
4429.510486
4431.394960
4433.111047
4436.372018
4427.001854
4442.623203
4412.186618
4415.566176
4427.418799
4438.853997
4426.113549
4430.855359
4431.017617
4450.020246
4382.387116
4454.950228
4429.966887
4575.254754
4375.153903
4479.642196
4429.999136
4438.144381
4430.651278
4396.409067
4453.335869
4399.810413
4410.866527
4428.556591
4414.081005
4429.422857
4433.613493
4430.603795
4430.061222
4422.450674
4431.503743
4416.412981
4435.784828
4428.568555
4422.671122
4441.609581
4414.705384
4412.176694
4437.788913
4409.473362
4462.037008
4455.496463
4469.271770
4365.445487
4380.973249
4522.963413
4408.488017
4425.592372
4456.975567
4428.249304
4385.259856
4420.281508
4441.994413
4465.452763
4407.796923
4405.929110
4432.762554
4432.486369
4426.114924
4431.251536
4431.436238
4440.147396
4424.737867
4418.928571
4424.235292
4430.255834
4407.468309
4445.048006
4446.455854
4434.046289
4387.192210
4449.604262
4414.909842
4447.646132
4397.283806
4460.916991
4413.775074
4446.296357
4414.780696
4423.180423
4436.883245
4425.165559
4404.001023
4450.402382
4354.701479
4421.716163
4447.518384
4429.279801
4424.794624
4433.203547
4436.248008
4420.068177
4413.217599
4434.814689
4446.242806
4408.524351
4437.592918
4421.724903
4414.205610
4466.752745
4392.917884
4405.529517
4463.488399
4373.941480
4398.401783
4432.956779
4448.091484
4420.422099
4426.999409
4437.226203
4447.173111
4412.547257
4438.943599
4475.857623
4374.627079
4475.958413
4366.052278
4423.130873
4428.197954
4434.004954
4432.773015
4419.529137
4430.239723
4449.590854
4416.369377
4407.853055
4417.178320
4445.475075
4394.517445
4437.159361
4433.010670
4434.104502
4439.088685
4404.519106
4444.088601
4426.340485
4404.017154
4439.717090
4421.737445
4419.420069
4475.060267
4410.206328
4435.143159
4465.952923
4442.348376
4364.176320
4442.437929
4409.168516
4457.257263
4428.585029
4427.327576
4420.461810
4434.724405
4422.589925
4413.437354
4424.662003
4437.096274
4433.647014
4423.264365
4420.058257
4444.410645
4411.280939
4412.318184
4407.427125
4428.684610
4400.329823
4461.666002
4439.694641
4492.006962
4410.811836
4408.425959
4452.119576
4402.991336
4435.184879
4438.385467
4462.895495
4416.248609
4461.328027
4434.177280
4441.006262
4429.768628
4433.637998
4428.168863
4436.589114
4420.836740
4431.823346
4426.879830
4404.504402
4410.983208
4433.809612
4444.861055
4423.644766
4420.735913
4425.963796
4447.636889
4453.668707
4398.054205
4462.311292
4362.478062
4411.940356
4432.481215
4405.854649
4454.145462
4446.557970
4419.417099
4413.765364
4416.229928
4426.881831
4400.497445
4423.027848
4414.803560
4424.766505
4433.771150
4420.374890
4425.294502
4416.566997
4437.993901
4403.479114
4442.030539
4450.831677
4404.192743
4404.712300
4450.715465
4419.892497
4427.094301
4411.395128
4422.516097
4425.937211
4464.074080
4413.243730
4446.973624
4419.061126
4568.658814
4423.377846
4367.977562
4429.898231
4447.731249
4416.363510
4445.998454
4497.479326
4422.601018
4448.451717
4427.959639
4433.304827
4422.507534
4441.932092
4434.156472
4424.295242
4431.110795
4425.452554
4387.335046
4447.018142
4438.324945
4428.480187
4405.273483
4450.340586
4418.099065
4465.444099
4392.837586
4473.711314
4404.637246
4427.932222
4419.754954
4419.556216
4427.604277
4430.476180
4426.635811
4444.529508
4417.223544
4433.964434
4391.760682
4378.730739
4436.835823
4425.857755
4431.207159
4427.561432
4420.704688
4421.356820
4440.336697
4426.826129
4423.692407
4440.495223
4439.805750
4389.635356
4441.880672
4435.515957
4443.845809
4417.802839
4435.516111
4414.168265
4454.515215
4431.045393
4433.054330
4413.532193
4423.077524
4420.984028
4426.274017
4498.266423
4400.669185
4410.538357
4444.132079
4385.207038
4434.959711
4410.507834
4424.915420
4428.416919
4428.190010
4435.142602
4446.535864
4415.451360
4421.092547
4434.320418
4402.096534
4416.113860
4448.309243
4432.889627
4417.368298
4400.004599
4446.487938
4433.966511
4391.394441
4366.260090
4391.147293
4457.969170
4444.480437
4410.395573
4399.869568
4404.807910
4447.599405
4411.464756
4434.891767
4462.831050
4464.644584
4428.218060
4460.142287
4435.691289
4434.432758
4425.150271
4425.259905
4412.094462
4444.170364
4440.057086
4416.863231
4436.386180
4419.222321
4435.449794
4397.143235
4454.704804
4434.013478
4409.757045
4440.347334
4416.257707
4491.948208
4453.319062
4437.293265
4446.164747
4456.092260
4450.416352
4422.205416
4445.939721
4434.427349
4425.029891
4429.166418
4418.893908
4418.357580
4412.548721
4427.193002
4425.907820
4433.773877
4440.334862
4435.468961
4434.756059
4409.317232
4420.486172
4451.206898
4410.302865
4421.510262
4444.385553
4427.915165
4417.518200
4432.919232
4446.290933
4382.030205
4444.966200
4392.561352
4369.764204
4433.698161
4434.096609
4479.121908
4395.761267
4479.848233
4378.977443
4427.697571
4425.857159
4456.796811
4363.184896
4421.187596
4430.209311
4429.908608
4433.979085
4410.902573
4435.354568
4425.481252
4438.342493
4443.145934
4387.861668
4446.197870
4429.030716
4423.075041
4409.673336
4458.605336
4419.226398
4451.882285
4407.308367
4383.668468
4476.388546
4468.561158
4449.259678
4399.721678
4407.996234
4440.433127
4444.283730
4427.269664
4375.187920
4463.017600
4429.327149
4450.787015
4422.395386
4438.861691
4431.823869
4427.635161
4434.936289
4432.277961
4427.327122
4402.440086
4414.756262
4435.573530
4443.466376
4392.930240
4447.676327
4432.211902
4433.543997
4394.771503
4433.487775
4446.700138
4457.446019
4346.569299
4473.958321
4459.056228
4498.056284
4497.066582
4425.726669
4456.537574
4456.582858
4445.039462
4427.005089
4391.979568
4399.531265
4436.259847
4433.812546
4424.251154
4422.284843
4423.631831
4413.673006
4444.319131
4408.678681
4450.014373
4407.469336
4411.286138
4426.078622
4437.540451
4401.323755
4441.752159
4413.234037
4439.345258
4380.763356
4441.546883
4311.654359
4505.723738
4491.826442
4424.883397
4403.171029
4526.011610
4371.507216
4437.261959
4388.574355
4467.997144
4360.323262
4433.858376
4440.174359
4429.368066
4434.695686
4436.242312
4426.703114
4434.186589
4426.725911
4432.625522
4406.116763
4428.649760
4430.886814
4424.320434
4405.117367
4425.307725
4435.843602
4402.578260
4457.617923
4396.339306
4458.903654
4458.323123
4506.234274
4431.371616
4424.403033
4356.927485
4414.810947
4428.129066
4430.523997
4449.772804
4466.128688
4441.128774
4380.251606
4452.418335
4422.947228
4427.947408
4427.036725
4420.003774
4421.097058
4413.254727
4429.492235
4431.632124
4417.513998
4418.820271
4421.639266
4440.888255
4407.723870
4430.191513
4441.308078
4431.072632
4432.499387
4440.396289
4441.925221
4468.944775
4658.170622
4377.827896
4542.619063
4417.970099
4423.394304
4468.152221
4385.547382
4419.362762
4452.855200
4434.803171
4413.329985
4425.986807
4429.199428
4428.510299
4438.583156
4427.523636
4417.728040
4436.660174
4439.055967
4422.831398
4454.072333
4422.893225
4414.330355
4433.884546
4439.537984
4396.631585
4428.966976
4413.188886
4413.884906
4423.721895
4430.590317
4401.175278
4425.490982
4506.844879
4414.121476
4436.524172
4461.475490
4361.944558
4373.901234
4493.750591
4465.802959
4410.717227
4424.598366
4431.376006
4411.186435
4421.044708
4442.080957
4448.697241
4395.400602
4446.712003
4413.186304
4429.619280
4410.992105
4438.498962
4425.999407
4429.411103
4426.090058
4424.852429
4410.008027
4423.679838
4458.715879
4453.536318
4424.557504
4495.762903
4381.547316
4407.875848
4416.680506
4450.639648
4478.006355
4437.974468
4375.263505
4413.268331
4396.818741
4424.783131
4429.850679
4426.276424
4451.012305
4417.100426
4409.032286
4412.511097
4451.569076
4400.361437
4441.409373
4429.485289
4427.810423
4422.715969
4433.746396
4419.588830
4431.602278
4440.876436
4361.619053
4435.416924
4483.269913
4414.160681
4490.913974
4447.303074
4421.070080
4468.924543
4453.754649
4419.290351
4526.986417
4371.310273
4460.031067
4415.897256
4422.918534
4434.458030
4414.054075
4423.811510
4426.623368
4444.207338
4416.187287
4421.767832
4450.490070
4432.463943
4396.892915
4405.901013
4409.144008
4429.448510
4420.126025
4433.089560
4408.880099
4405.922699
4439.211594
4442.701643
4439.637175
4452.078220
4437.297880
4447.724464
4463.655151
4428.347090
4463.186222
4415.265452
4360.143511
4389.376817
4419.400684
4420.480037
4432.067408
4430.172928
4423.127183
4438.136230
4402.841292
4443.876189
4417.898478
4440.716428
4413.229284
4409.899494
4463.758944
4414.444255
4423.231604
4419.043234
4427.831984
4463.243535
4395.249184
4433.743960
4446.448657
4419.290573
4422.089378
4448.096117
4380.227241
4367.874571
4485.305467
4406.272445
4400.200081
4459.105714
4465.688938
4415.619726
4427.786667
4418.011005
4421.658911
4423.497094
4415.059424
4455.849148
4397.960558
4439.085236
4412.063241
4425.425662
4397.029626
4432.424169
4424.138751
4439.830646
4401.018641
4448.496077
4398.755249
4424.924376
4377.628548
4425.584931
4422.137533
4457.616907
4399.735304
4470.656332
4430.980031
4447.381869
4401.193190
4387.129634
4463.805611
4357.663553
4418.416198
4422.975906
4422.068889
4435.811118
4434.471983
4400.149333
4456.021754
4407.165533
4436.979233
4421.117153
4432.592284
4420.278771
4424.479049
4432.940771
4413.919386
4430.029572
4408.657851
4413.769929
4451.975564
4436.869638
4500.885870
4432.624629
4414.950432
4427.634264
4419.040995
4476.779822
4473.468857
4461.377801
4471.837328
4458.098060
4412.560665
4411.150470
4424.527882
4429.789113
4414.928300
4421.172540
4442.420880
4396.094204
4431.679690
4423.168530
4427.730659
4417.314332
4427.942126
4434.878740
4396.345038
4430.905710
4436.690784
4389.948524
4413.737147
4397.123147
4364.852174
4462.170535
4433.792261
4431.422883
4383.088313
4470.480224
4436.876637
4383.245680
4457.780641
4417.679725
4449.935433
4433.377549
4404.678779
4418.366203
4422.878878
4432.288221
4414.240408
4444.202667
4425.432813
4429.083172
4414.190163
4420.014949
4449.803318
4423.648152
4433.062386
4444.482687
4436.849800
4460.882697
4446.385994
4386.086585
4450.416363
4459.847712
4455.545240
4414.341844
4422.163711
4438.727011
4432.649599
4440.200299
4459.198909
4437.648691
4385.373978
4442.224420
4380.845331
4459.743633
4421.442785
4432.351384
4435.618204
4421.480929
4396.406515
4457.017990
4423.622468
4433.831330
4403.398358
4437.187097
4432.167657
4427.846757
4398.347211
4413.681530
4405.914327
4454.644729
4419.503534
4505.344283
4405.324155
4321.530915
4391.002943
4466.904805
4473.027413
4425.973330
4446.242028
4448.452117
4457.990438
4365.741600
4433.155812
4421.583410
4362.777646
4439.310701
4428.802569
4402.718592
4429.616914
4441.766580
4409.188188
4421.206097
4432.385479
4405.079440
4428.545896
4409.380983
4444.086369
4445.046304
4451.389430
4420.459357
4415.825259
4475.132901
4384.273495
4420.260060
4532.896991
4400.154987
4417.555949
4478.158038
4445.332251
4450.673947
4446.888007
4419.036098
4455.823288
4470.170978
4392.534314
4428.296526
4425.999459
4424.494561
4448.104897
4434.980698
4392.724187
4405.138319
4417.651796
4417.323145
4403.605242
4424.874600
4416.463007
4404.697706
4381.745013
4441.220223
4439.440097
4419.203974
4426.543655
4445.253682
4406.980834
4437.832956
4470.293019
4483.884446
4468.009085
4426.696850
4491.860683
4428.810425
4430.396713
4449.421402
4469.977540
4440.620686
4483.257443
4425.206327
4431.298684
4424.511681
4414.832595
4442.103723
4449.890497
4426.777122
4431.509808
4421.022257
4421.586302
4448.884084
4441.052763
4440.232309
4424.164527
4393.607657
4432.447481
4415.222825
4437.170244
4441.498948
4443.271099
4668.329771
4370.250742
4471.443254
4481.983913
4469.626557
4462.918305
4420.572154
4385.160872
4392.652711
4347.053068
4368.774525
4428.780032
4441.143904
4405.604888
4434.257334
4429.383606
4394.937881
4441.917892
4412.668512
4435.220470
4437.335693
4416.459062
4422.355748
4417.385904
4440.036816
4418.045502
4433.508091
4369.156658
4415.604620
4449.744408
4377.924799
4464.230560
4421.994708
4463.139071
4424.712488
4425.650772
4442.939404
4418.061572
4417.515423
4457.393240
4421.782615
4444.319173
4425.460140
4416.658578
4434.506093
4426.003590
4404.024405
4442.267804
4414.375251
4404.338003
4412.098069
4432.286644
4409.413204
4443.501909
4407.888990
4439.055882
4420.596626
4442.351653
4404.014533
4442.590915
4438.689382
4417.596283
4405.697458
4467.462023
4451.034424
4470.455680
4397.029197
4422.306434
4447.969567
4427.232763
4449.270911
4415.444219
4420.590692
4432.723774
4425.432219
4423.073515
4448.033425
4436.597071
4385.799278
4449.912874
4419.683049
4434.443619
4408.929857
4424.091311
4423.984561
4428.055649
4438.854290
4430.245556
4435.533628
4420.995729
4452.926560
4498.217163
4372.200100
4426.770008
4478.460644
4448.377571
4463.571864
4375.917602
4489.537555
4443.953658
4424.996878
4439.762828
4419.176150
4384.086510
4417.136229
4429.622867
4414.426710
4394.444545
4428.618808
4429.156911
4452.040501
4443.206772
4389.685238
4442.689393
4415.024179
4443.396496
4401.198980
4421.946388
4407.552996
4390.973765
4417.135985
4433.393674