# vtk DataFile Version 2.0
mfree iwf
ASCII

DATASET UNSTRUCTURED_GRID
POINTS 6231 float
0.000000 0.000300 0.000000
0.000000 0.000310 0.000000
0.000000 0.000320 0.000000
0.000000 0.000330 0.000000
0.000000 0.000340 0.000000
0.000000 0.000350 0.000000
0.000000 0.000360 0.000000
0.000001 0.000370 0.000000
0.000001 0.000380 0.000000
0.000001 0.000390 0.000000
0.000001 0.000400 0.000000
0.000001 0.000410 0.000000
0.000001 0.000420 0.000000
0.000001 0.000430 0.000000
0.000001 0.000440 0.000000
0.000001 0.000450 0.000000
0.000002 0.000460 0.000000
0.000002 0.000470 0.000000
0.000002 0.000480 0.000000
0.000001 0.000492 0.000000
0.000006 0.000501 0.000000
0.000862 0.000982 0.000000
0.000935 0.001020 0.000000
0.000879 0.000990 0.000000
0.000947 0.001025 0.000000
0.000969 0.001030 0.000000
0.001018 0.001035 0.000000
0.001026 0.001033 0.000000
0.001038 0.001028 0.000000
0.001051 0.001026 0.000000
0.001081 0.001027 0.000000
0.000010 0.000300 0.000000
0.000010 0.000310 0.000000
0.000010 0.000320 0.000000
0.000010 0.000330 0.000000
0.000010 0.000340 0.000000
0.000010 0.000350 0.000000
0.000010 0.000360 0.000000
0.000011 0.000370 0.000000
0.000011 0.000380 0.000000
0.000011 0.000390 0.000000
0.000011 0.000400 0.000000
0.000011 0.000410 0.000000
0.000011 0.000420 0.000000
0.000011 0.000430 0.000000
0.000011 0.000440 0.000000
0.000011 0.000450 0.000000
0.000012 0.000460 0.000000
0.000011 0.000472 0.000000
0.000013 0.000478 0.000000
0.000009 0.000492 0.000000
0.000013 0.000498 0.000000
0.000988 0.001027 0.000000
0.001003 0.001028 0.000000
0.001011 0.001029 0.000000
0.001017 0.001027 0.000000
0.001033 0.001021 0.000000
0.001045 0.001019 0.000000
0.001059 0.001016 0.000000
0.001070 0.001017 0.000000
0.001075 0.001015 0.000000
0.001078 0.001023 0.000000
0.000020 0.000300 0.000000
0.000020 0.000310 0.000000
0.000020 0.000320 0.000000
0.000020 0.000330 0.000000
0.000021 0.000340 0.000000
0.000020 0.000350 0.000000
0.000021 0.000360 0.000000
0.000021 0.000370 0.000000
0.000020 0.000380 0.000000
0.000021 0.000390 0.000000
0.000021 0.000400 0.000000
0.000022 0.000410 0.000000
0.000021 0.000420 0.000000
0.000022 0.000431 0.000000
0.000021 0.000440 0.000000
0.000023 0.000451 0.000000
0.000021 0.000460 0.000000
0.000022 0.000470 0.000000
0.000021 0.000482 0.000000
0.000024 0.000494 0.000000
0.000020 0.000497 0.000000
0.000955 0.001016 0.000000
0.000984 0.001022 0.000000
0.000994 0.001024 0.000000
0.000999 0.001022 0.000000
0.001008 0.001015 0.000000
0.001024 0.001019 0.000000
0.001050 0.001012 0.000000
0.001065 0.001012 0.000000
0.001072 0.001004 0.000000
0.001080 0.001001 0.000000
0.000030 0.000300 0.000000
0.000030 0.000310 0.000000
0.000030 0.000320 0.000000
0.000030 0.000330 0.000000
0.000030 0.000340 0.000000
0.000030 0.000350 0.000000
0.000031 0.000360 0.000000
0.000030 0.000370 0.000000
0.000032 0.000380 0.000000
0.000030 0.000390 0.000000
0.000031 0.000400 0.000000
0.000031 0.000411 0.000000
0.000031 0.000420 0.000000
0.000031 0.000430 0.000000
0.000031 0.000440 0.000000
0.000031 0.000450 0.000000
0.000031 0.000459 0.000000
0.000036 0.000473 0.000000
0.000029 0.000478 0.000000
0.000032 0.000488 0.000000
0.000032 0.000497 0.000000
0.000063 0.000500 0.000000
0.000976 0.001018 0.000000
0.000992 0.001008 0.000000
0.001019 0.001011 0.000000
0.001028 0.001002 0.000000
0.001034 0.001014 0.000000
0.001038 0.001006 0.000000
0.001049 0.001004 0.000000
0.001056 0.001002 0.000000
0.001079 0.000993 0.000000
0.000040 0.000300 0.000000
0.000040 0.000310 0.000000
0.000040 0.000320 0.000000
0.000040 0.000331 0.000000
0.000040 0.000340 0.000000
0.000040 0.000349 0.000000
0.000040 0.000359 0.000000
0.000040 0.000369 0.000000
0.000041 0.000380 0.000000
0.000040 0.000390 0.000000
0.000042 0.000400 0.000000
0.000041 0.000410 0.000000
0.000042 0.000420 0.000000
0.000041 0.000431 0.000000
0.000042 0.000439 0.000000
0.000043 0.000450 0.000000
0.000042 0.000460 0.000000
0.000037 0.000469 0.000000
0.000045 0.000477 0.000000
0.000043 0.000496 0.000000
0.000040 0.000498 0.000000
0.000764 0.000838 0.000000
0.000984 0.001009 0.000000
0.001002 0.001008 0.000000
0.001010 0.001001 0.000000
0.001018 0.001008 0.000000
0.001039 0.000998 0.000000
0.001060 0.000992 0.000000
0.001058 0.000982 0.000000
0.001069 0.000995 0.000000
0.001076 0.000984 0.000000
0.000050 0.000300 0.000000
0.000050 0.000310 0.000000
0.000050 0.000320 0.000000
0.000050 0.000329 0.000000
0.000050 0.000340 0.000000
0.000051 0.000351 0.000000
0.000050 0.000361 0.000000
0.000051 0.000371 0.000000
0.000050 0.000380 0.000000
0.000051 0.000390 0.000000
0.000051 0.000400 0.000000
0.000050 0.000411 0.000000
0.000052 0.000420 0.000000
0.000051 0.000430 0.000000
0.000053 0.000440 0.000000
0.000048 0.000451 0.000000
0.000054 0.000458 0.000000
0.000053 0.000469 0.000000
0.000056 0.000483 0.000000
0.000048 0.000488 0.000000
0.000050 0.000498 0.000000
0.000974 0.001024 0.000000
0.000929 0.001010 0.000000
0.000997 0.001002 0.000000
0.001012 0.000988 0.000000
0.001026 0.000990 0.000000
0.001042 0.000990 0.000000
0.001033 0.000986 0.000000
0.001051 0.000990 0.000000
0.001066 0.000983 0.000000
0.001073 0.000973 0.000000
0.000060 0.000300 0.000000
0.000060 0.000310 0.000000
0.000060 0.000320 0.000000
0.000060 0.000332 0.000000
0.000061 0.000339 0.000000
0.000060 0.000349 0.000000
0.000061 0.000358 0.000000
0.000060 0.000368 0.000000
0.000061 0.000380 0.000000
0.000060 0.000391 0.000000
0.000062 0.000400 0.000000
0.000060 0.000409 0.000000
0.000063 0.000419 0.000000
0.000059 0.000431 0.000000
0.000065 0.000440 0.000000
0.000060 0.000449 0.000000
0.000065 0.000460 0.000000
0.000055 0.000472 0.000000
0.000064 0.000475 0.000000
0.000068 0.000486 0.000000
0.000058 0.000496 0.000000
0.000963 0.001023 0.000000
0.000974 0.001008 0.000000
0.000991 0.000991 0.000000
0.001003 0.000993 0.000000
0.001020 0.000981 0.000000
0.001024 0.000974 0.000000
0.001052 0.000973 0.000000
0.001043 0.000980 0.000000
0.001062 0.000972 0.000000
0.001070 0.000964 0.000000
0.000070 0.000300 0.000000
0.000070 0.000310 0.000000
0.000070 0.000319 0.000000
0.000070 0.000328 0.000000
0.000071 0.000340 0.000000
0.000070 0.000351 0.000000
0.000072 0.000359 0.000000
0.000069 0.000373 0.000000
0.000081 0.000376 0.000000
0.000070 0.000390 0.000000
0.000073 0.000400 0.000000
0.000069 0.000411 0.000000
0.000075 0.000421 0.000000
0.000068 0.000429 0.000000
0.000075 0.000438 0.000000
0.000067 0.000451 0.000000
0.000077 0.000458 0.000000
0.000073 0.000470 0.000000
0.000076 0.000486 0.000000
0.000068 0.000495 0.000000
0.000076 0.000496 0.000000
0.000756 0.000816 0.000000
0.000963 0.001010 0.000000
0.000984 0.000998 0.000000
0.001004 0.000970 0.000000
0.001020 0.000995 0.000000
0.001034 0.000974 0.000000
0.001044 0.000972 0.000000
0.001038 0.000963 0.000000
0.001058 0.000963 0.000000
0.001066 0.000955 0.000000
0.000080 0.000300 0.000000
0.000080 0.000310 0.000000
0.000081 0.000321 0.000000
0.000079 0.000331 0.000000
0.000082 0.000340 0.000000
0.000079 0.000349 0.000000
0.000083 0.000361 0.000000
0.000073 0.000369 0.000000
0.000075 0.000383 0.000000
0.000080 0.000392 0.000000
0.000089 0.000397 0.000000
0.000078 0.000410 0.000000
0.000085 0.000416 0.000000
0.000079 0.000431 0.000000
0.000086 0.000445 0.000000
0.000077 0.000448 0.000000
0.000085 0.000463 0.000000
0.000074 0.000470 0.000000
0.000087 0.000473 0.000000
0.000085 0.000482 0.000000
0.000084 0.000495 0.000000
0.000953 0.001021 0.000000
0.000925 0.001016 0.000000
0.000988 0.000979 0.000000
0.000999 0.000986 0.000000
0.001010 0.000978 0.000000
0.001018 0.000966 0.000000
0.001028 0.000965 0.000000
0.001048 0.000960 0.000000
0.001055 0.000954 0.000000
0.001063 0.000945 0.000000
0.000090 0.000300 0.000000
0.000090 0.000310 0.000000
0.000090 0.000319 0.000000
0.000090 0.000329 0.000000
0.000091 0.000340 0.000000
0.000089 0.000350 0.000000
0.000092 0.000361 0.000000
0.000088 0.000369 0.000000
0.000093 0.000379 0.000000
0.000090 0.000387 0.000000
0.000085 0.000404 0.000000
0.000093 0.000410 0.000000
0.000087 0.000425 0.000000
0.000096 0.000426 0.000000
0.000089 0.000435 0.000000
0.000097 0.000456 0.000000
0.000087 0.000453 0.000000
0.000097 0.000471 0.000000
0.000106 0.000480 0.000000
0.000089 0.000494 0.000000
0.000094 0.000495 0.000000
0.000772 0.000854 0.000000
0.000957 0.001004 0.000000
0.000946 0.001011 0.000000
0.000976 0.000999 0.000000
0.000996 0.000967 0.000000
0.001021 0.000956 0.000000
0.001036 0.000955 0.000000
0.001042 0.000950 0.000000
0.001051 0.000945 0.000000
0.001058 0.000936 0.000000
0.000100 0.000300 0.000000
0.000100 0.000310 0.000000
0.000101 0.000321 0.000000
0.000099 0.000331 0.000000
0.000101 0.000339 0.000000
0.000100 0.000349 0.000000
0.000101 0.000359 0.000000
0.000101 0.000370 0.000000
0.000100 0.000381 0.000000
0.000100 0.000391 0.000000
0.000100 0.000400 0.000000
0.000103 0.000406 0.000000
0.000101 0.000418 0.000000
0.000100 0.000436 0.000000
0.000109 0.000443 0.000000
0.000096 0.000445 0.000000
0.000107 0.000460 0.000000
0.000098 0.000467 0.000000
0.000094 0.000481 0.000000
0.000106 0.000491 0.000000
0.000101 0.000494 0.000000
0.000884 0.000994 0.000000
0.000893 0.000999 0.000000
0.000919 0.001013 0.000000
0.000999 0.000977 0.000000
0.001011 0.000963 0.000000
0.001012 0.000952 0.000000
0.001032 0.000947 0.000000
0.001024 0.000943 0.000000
0.001046 0.000939 0.000000
0.001054 0.000928 0.000000
0.000110 0.000300 0.000000
0.000110 0.000310 0.000000
0.000110 0.000319 0.000000
0.000110 0.000329 0.000000
0.000111 0.000341 0.000000
0.000110 0.000351 0.000000
0.000111 0.000360 0.000000
0.000110 0.000371 0.000000
0.000111 0.000377 0.000000
0.000111 0.000388 0.000000
0.000113 0.000400 0.000000
0.000110 0.000413 0.000000
0.000116 0.000422 0.000000
0.000106 0.000427 0.000000
0.000112 0.000432 0.000000
0.000107 0.000449 0.000000
0.000115 0.000462 0.000000
0.000111 0.000471 0.000000
0.000116 0.000480 0.000000
0.000111 0.000493 0.000000
0.000119 0.000492 0.000000
0.000831 0.000948 0.000000
0.000781 0.000875 0.000000
0.000951 0.001000 0.000000
0.000972 0.000987 0.000000
0.000962 0.000985 0.000000
[...]
POINT_DATA 6231
SCALARS density float 1
LOOKUP_TABLE default
4413.451682
4427.997604
4423.684433
4421.331267
4421.799174
4421.462871
4424.145953
4426.244658
4429.250718
4429.962973
4426.609190
4430.265125
4429.660792
4432.230736
4431.540116
4439.398868
4423.193069
4432.662075
4413.605914
4424.061159
4411.277789
4422.847897
4426.919444
4429.727231
4441.460483
4418.980156
4393.713711
4423.567302
4449.860714
4451.441465
4415.505181
4419.645989
4425.857466
4422.747355
4427.976468
4431.369922
4431.324966
4427.344820
4432.104077
4428.085291
4429.991649
4426.872728
4435.166006
4424.115570
4432.534854
4414.559702
4429.446511
4411.972077
4439.631281
4464.338994
4459.974451
4416.148928
4405.336556
4419.322098
4445.122405
4520.841156
4409.582603
4404.133383
4425.505930
4400.821789
4452.998547
4439.020430
4419.351720
4425.391517
4430.252508
4426.772217
4421.415037
4425.196059
4421.737146
4429.742649
4414.271270
4434.252735
4423.432213
4432.548522
4421.042771
4443.353007
4421.004374
4469.454885
4401.555186
4454.089786
4350.360228
4451.454006
4421.283594
4420.993825
4435.508418
4411.141089
4514.087259
4304.789444
4354.318025
4416.711443
4419.164156
4426.068164
4400.826711
4427.033870
4432.188240
4425.735527
4426.954501
4434.730405
4434.700812
4430.489785
4438.548944
4429.788333
4442.376277
4410.770071
4438.043098
4422.564488
4438.092746
4404.454671
4429.192024
4397.889151
4453.160087
4374.687718
4550.469067
4372.679756
4432.733223
4459.807751
4446.418053
4475.797352
4342.192365
4475.474753
4460.552324
4418.825245
4480.319180
4432.056265
4427.983733
4427.112306
4428.197231
4438.492701
4428.907323
4427.496859
4430.494409
4425.329514
4421.051159
4420.605112
4423.258904
4447.667594
4406.868147
4444.572926
4421.660884
4454.098972
4388.421725
4507.730591
4308.530566
4419.374502
4385.479171
4429.659981
4394.606102
4431.658240
4426.824569
4512.090905
4437.250942
4409.511052
4495.264628
4445.484883
4413.887399
4428.297578
4435.610370
4433.450654
4430.990623
4428.217717
4438.284371
4428.322019
4444.345446
4434.403933
4440.356852
4424.444636
4425.568081
4414.507245
4455.945027
4369.187741
4477.387365
4362.653153
4471.333623
4360.329924
4538.172174
4381.872189
4444.747166
4429.599489
4463.582063
4434.603665
4450.431078
4449.739751
4398.219575
4391.598332
4414.234411
4421.318820
4435.881992
4436.441358
4417.769765
4440.234800
4436.677123
4439.971485
4415.657791
4426.439828
4390.371667
4437.995598
4414.833201
4446.162557
4415.972496
4433.030962
4421.084881
4464.710104
4395.756589
4523.112053
4378.154327
4478.557063
4432.950287
4415.070234
4398.624414
4408.194527
4442.713220
4448.000319
4421.115553
4420.076679
4403.107991
4411.836667
4435.627212
4428.707752
4422.708172
4436.247784
4438.385357
4400.699107
4440.717164
4417.778308
4439.484918
4397.201361
4462.676613
4391.669611
4431.553205
4407.847458
4437.311454
4431.770801
4459.181521
4442.259121
4453.275499
4448.700887
4414.841957
4390.843503
4437.082812
4459.714591
4426.680934
4420.912140
4384.375924
4414.462464
4453.314466
4443.610012
4435.060648
4416.882463
4428.546623
4432.918870
4428.010723
4408.455804
4435.638595
4444.195114
4416.055783
4454.394977
4421.575136
4428.814130
4410.834996
4438.857804
4429.419041
4441.245459
4461.804788
4387.447057
4447.631106
4453.266931
4364.965333
4462.379497
4418.407802
4434.623334
4414.388135
4430.241702
4441.101575
4396.212524
4442.878314
4443.771214
4406.388103
4436.445001
4438.381261
4434.318394
4433.147941
4416.513451
4428.357684
4432.999652
4411.367294
4446.039055
4435.407734
4453.755058
4443.178305
4444.172389
4393.625614
4416.075934
4460.247851
4420.181187
4384.053064
4442.233217
4439.547121
4431.682634
4429.911210
4416.589150
4430.107435
4423.290899
4426.514273
4491.830048
4407.364682
4387.592521
4431.235594
4445.270436
4428.782969
4411.449039
4428.076035
4424.265768
4434.351523
4440.153717
4416.348019
4436.740614
4438.132260
4411.203895
4424.838206
4407.501470
4440.031768
4447.690761
4418.204268
4387.830717
4449.909324
4449.416007
4406.945638
4468.967896
4410.517232
4437.404850
4418.556210
4421.291021
4429.851517
4421.801323
4448.056653
4463.000615
4380.863347
4402.337512
4468.550304
4453.484483
4423.712426
4423.515077
4435.494989
4440.269802
4407.001663
4440.750211
4431.222154
4409.584552
4445.583245
4437.704885
4443.154390
4397.408752
4438.424659
4408.175877
4451.835692
4413.668391
4437.164224
4478.561817
4388.404953
4454.361405
4407.723547
4413.997077
4439.076023
4436.141344
4437.131647
4392.403725
4440.702501
4451.669959
4465.160116
4411.680749
4420.510107
4455.075514
4430.619347
4430.329798
4415.377413
4442.002720
4443.277374
4405.827650
4431.533182
4436.891154
4392.293116
4458.326746
4416.908896
4422.735292
4449.330391
4451.467876
4416.213168
4380.114658
4429.809093
4387.288001
4437.385264
4433.608988
4394.850272
4436.110560
4419.432284
4431.134330
4453.159803
4453.874065
4417.177314
4338.627630
4458.512948
4387.904310
4416.279771
4435.272895
4436.554629
4429.750655
4435.329710
4407.933782
4455.341623
4441.299622
4406.651626
4458.543662
4423.925530
4420.755379
4390.402000
4420.746435
4448.057948
4400.905873
4461.085383
4398.464148
4464.247156
4485.539499
4419.107999
4441.256346
4434.398359
4421.570575
4422.589980
4428.372038
4428.977280
4447.926061
4466.916185
4473.953725
4499.554435
4454.387697
4433.561096
4433.468506
4427.499027
4423.028803
4440.174359
4425.075601
4414.841547
4417.384942
4452.156444
4384.106316
4443.250258
4436.177750
4450.562551
4415.411055
4442.926864
4372.118020
4422.550167
4490.779371
4575.705004
4387.415839
4373.978770
4423.688175
4419.452588
4445.892383
4443.271829
4374.016074
4455.981194
4425.112137
4402.266087
4403.214684
4450.527112
4432.212300
4432.612713
4440.497557
4423.465801
4431.815153
4395.854160
4447.887849
4454.531992
4402.913103
4431.165299
4429.550573
4431.126098
4435.852529
4411.995601
4457.671164
4411.242723
4505.460186
4348.764471
4337.982175
4472.140306
4392.590053
4412.362608
4442.351280
4431.538547
4484.214341
4444.092556
4422.338809
4428.821382
4400.171220
4423.709971
4411.723383
4437.270728
4426.081376
4433.287653
4423.685500
4433.757272
4449.990558
4400.264292
4409.753895
4405.252632
4468.168092
4424.593198
4395.864799
4433.057346
4416.213643
4433.805264
4444.004369
4408.033361
4483.243130
4472.930418
4421.221580
4406.569607
4427.599160
4451.780247
4404.830640
4376.114495
4472.614915
4456.508554
4419.610192
4402.446188
4431.475468
4429.635256
4437.279761
4424.118639
4434.693515
4444.146556
4413.887380
4430.984878
4426.956212
4442.376233
4435.488072
4402.815738
4454.342650
4410.217953
4448.939093
4440.203262
4414.864653
4427.703965
4389.685091
4487.190216
4374.689587
4371.452899
4422.586364
4420.150460
4438.776613
4442.926886
4399.413400
4457.241868
4446.764912
4413.308654
4462.793748
4432.271883
4440.083558
4424.221249
4440.186765
4426.644025
4425.446021
4441.597768
4421.877409
4437.555468
4397.818808
4441.918711
4457.924913
4408.218897
4438.806805
4402.713269
4440.535029
4415.429564
4453.054168
4369.023912
4448.419538
4410.306918
4440.782368
4388.195285
4428.691560
4434.401286
4440.316554
4452.988884
4401.010650
4471.326253
4460.994965
4413.262655
4412.696777
4419.167398
4430.235430
4427.076710
4425.734413
4417.945163
4450.981059
4412.149800
4437.577846
4450.113072
4413.011359
4396.086161
4433.723003
4439.328998
4408.817871
4451.939552
4388.720493
4448.464248
4372.768128
4463.296053
4435.508872
4583.209086
4373.475390
4476.820106
4418.112834
4438.610084
4438.050607
4387.231378
4455.323091
4392.231135
4409.146780
4421.934308
4421.580159
4436.484357
4426.382754
4438.879291
4443.364476
4407.241469
4449.755671
4411.823324
4419.446752
4437.087087
4431.586413
4449.783241
4412.658393
4413.940390
4434.454808
4436.962521
4472.100857
4455.498852
4488.968687
4362.125500
4371.281054
4434.228825
4410.964898
4426.996623
4462.825309
4416.091819
4407.175321
4429.230702
4447.937489
4458.500380
4418.250016
4408.520818
4432.875083
4430.712840
4421.985927
4428.179265
4431.406246
4443.394155
4410.847615
4437.053951
4412.951687
4416.016930
4411.766899
4432.433554
4440.845597
4451.642957
4389.082646
4444.811309
4410.616225
4425.389829
4400.567033
4470.706509
4414.458384
4447.786548
4416.348841
4429.048536
4431.643203
4409.776504
4375.287643
4450.406832
4354.742622
4422.502565
4444.477055
4424.904462
4436.576598
4433.875465
4434.210531
4428.820133
4406.981468
4436.330309
4439.836347
4405.983430
4457.323368
4402.117969
4447.664408
4466.437564
4384.059231
4411.854854
4457.347800
4412.541923
4395.316007
4435.882791
4449.631821
4424.327393
4424.193071
4416.773355
4460.328013
4425.571892
4451.761651
4478.582155
4352.469834
4486.455282
4380.543742
4424.701715
4429.860213
4432.524286
4421.868289
4428.127579
4427.195896
4445.441829
4426.075460
4404.868893
4418.040950
4430.354544
4406.691923
4417.607009
4424.920594
4401.879639
4435.103079
4421.507515
4426.262268
4448.037651
4398.970060
4437.361804
4423.412475
4411.310626
4447.173241
4389.326705
4443.433651
4463.610556
4423.840738
4377.305476
4440.279423
4441.995841
4445.690566
4428.325086
4432.940053
4424.450203
4442.257509
4419.153868
4422.549237
4405.007735
4451.767018
4428.498274
4406.681118
4420.583659
4436.699801
4422.862850
4423.444443
4410.833163
4460.479272
4394.641599
4453.539478
4442.370461
4486.179882
4411.084689
4418.413723
4452.441603
4419.466785
4462.625991
4443.607310
4446.457648
4453.743977
4432.024089
4423.627266
4437.285932
4427.857223
4439.806754
4417.520196
4436.688014
4415.607079
4439.241136
4441.267538
4397.193721
4428.934893
4428.223268
4458.340111
4451.644528
4409.936843
4424.239586
4460.631707
4446.773262
4413.406755
4446.622984
4357.476110
4424.379510
4429.918208
4412.462487
4446.810756
4426.567382
4420.847356
4410.139506
4441.015101
4419.414413
4433.166044
4408.432304
4420.781084
4425.557410
4438.153974
4416.105995
4435.385754
4433.602586
4416.094413
4415.222290
4439.392548
4434.805107
4439.825957
4390.991242
4458.722897
4409.990065
4394.336137
4399.328947
4463.552828
4417.756748
4467.279732
4411.796440
4435.010577
4421.831942
4439.982230
4425.954197
4378.317959
4426.913107
4430.959816
4429.269476
4410.743077
4482.021766
4418.507917
4444.423430
4426.091824
4433.478613
4430.040221
4429.296979
4421.883739
4448.264515
4417.922510
4436.998218
4394.903808
4445.899730
4441.402289
4394.181846
4453.621542
4440.497644
4429.717944
4469.652815
4400.149666
4469.394119
4417.091550
4441.113964
4410.749798
4426.774248
4429.790215
4432.143242
4420.093577
4431.789784
4421.079757
4445.472692
4395.257398
4396.626859
4432.078675
4433.095758
4424.695564
4427.338755
4439.891844
4421.414498
4439.942425
4415.392381
4437.984674
4433.745936
4407.167252
4423.295095
4453.439775
4413.169387
4432.696953
4375.866114
4453.901247
4393.724040
4453.051590
4419.514229
4430.109302
4403.703749
4439.464391
4411.462765
4427.652915
4472.612870
4390.644634
4426.713191
4436.890156
4397.678730
4437.338121
4402.559020
4426.653255
4430.648426
4429.569599
4428.044965
4429.026792
4419.941135
4440.678953
4418.670487
4433.514641
4442.788970
4405.452082
4443.520427
4426.098930
4400.510540
4444.075461
4438.468437
4414.020001
4378.082344
4376.130023
4465.988062
4432.457714
4407.609390
4415.015124
4405.069631
4457.223073
4448.080162
4414.432876
4467.510155
4425.250587
4423.484846
4452.048775
4432.593601
4434.521892
4426.538576
4423.924850
4446.528474
4415.290170
4441.154864
4434.101219
4401.008073
4436.405394
4444.928476
4395.076629
4443.864079
4450.766629
4407.880157
4402.518089
4421.218406
4495.330806
4467.966513
4435.289396
4440.676168
4441.305441
4454.090986
4413.678431
4433.171235
4434.429906
4434.748755
4433.247811
4440.174074
4410.981173
4433.119974
4432.041689
4425.749468
4436.741404
4441.101744
4422.251605
4441.273824
4409.562079
4439.868961
4450.119661
4407.770469
4442.519734
4441.232998
4431.549845
4410.775542
4454.277872
4456.845703
4390.647511
4449.635614
4390.145988
4378.396059
4427.994052
4433.883331
4423.124840
4374.705837
4466.094254
4405.686080
4425.271801
4403.423293
4469.872246
4354.348504
4415.525632
4435.493933
4433.026261
4427.261448
4429.455096
4420.652556
4456.158793
4429.108613
4408.876958
4424.287074
4451.179441
4417.925485
4416.797047
4423.736216
4456.393461
4422.674467
4423.104991
4404.836624
4392.456493
4468.393527
4462.930092
4446.882570
4400.565481
4419.108749
4424.903553
4436.339746
4436.467253
4377.424894
4456.747352
4421.439240
4468.458824
4418.642269
4433.632360
4434.182868
4425.504261
4432.655101
4442.599164
4401.678788
4432.131211
4450.578408
4403.122089
4433.918015
4414.910643
4461.892564
4422.924970
4435.752272
4405.033949
4442.112536
4458.941296
4460.469266
4335.421797
4474.416182
4458.719389
4434.104457
4482.158015
4432.561481
4457.556657
4455.795790
4426.253307
4411.838581
4397.511990
4396.594781
4438.353622
4428.775287
4425.641906
4432.001932
4406.816435
4444.432339
4439.609405
4433.699504
4418.861586
4427.087159
4434.944424
4397.444614
4442.165999
4396.939126
4447.280642
4390.956024
4445.280285
4379.961469
4447.073974
4323.255629
4497.001229
4436.841948
4422.951115
4421.111092
4503.813422
4420.345494
4432.868490
4424.280406
4467.147092
4371.302180
4435.607535
4448.883129
4431.383467
4429.676362
4435.740449
4438.517623
4411.672697
4431.584538
4411.349887
4434.790873
4426.098228
4421.673499
4439.978551
4421.724274
4403.673368
4466.296329
4402.347527
4458.942880
4387.528936
4473.857913
4455.928372
4505.736285
4422.852762
4417.446906
4357.165055
4435.778044
4396.729647
4448.358130
4462.732317
4456.252989
4461.286833
4359.162180
4455.737981
4430.945480
4427.369645
4415.863349
4436.349715
4416.650016
4442.561317
4421.429229
4404.507396
4415.013100
4415.155206
4426.184923
4444.500809
4424.576825
4400.995784
4447.918318
4423.089926
4427.064580
4436.715013
4436.950487
4506.531972
4448.458110
4438.260214
4441.708720
4425.032211
4399.016135
4445.087761
4419.669631
4417.261861
4439.448861
4435.427802
4413.305413
4422.103596
4433.248808
4432.102136
4407.576549
4429.010880
4420.651690
4427.839426
4439.338214
4430.214366
4413.327880
4446.245502
4452.466686
4402.934829
4424.667665
4418.620257
4424.416814
4446.842331
4406.614342
4406.885885
4428.744220
4389.948443
4415.222961
4426.022690
4420.228866
4397.664598
4429.266452
4374.291677
4387.310158
4495.491898
4481.139349
4418.900741
4420.661207
4419.285772
4429.050920
4424.109888
4435.630089
4410.727828
4419.287920
4447.926594
4410.003004
4426.282526
4468.274824
4434.856994
4411.679165
4447.128216
4427.371356
4467.035800
4392.647404
4453.420330
4426.842018
4450.310900
4428.872067
4421.521417
4427.311981
4426.452197
4433.725093
4474.089318
4488.683220
4439.125220
4365.532457
4445.246527
4393.381031
4430.434128
4426.151792
4428.776888
4428.526858
4426.664511
4425.603507
4440.566780
4419.091626
4444.746831
4451.908363
4406.812319
4423.047320
4404.111608
4417.238478
4434.010904
4427.721400
4442.648387
4399.008166
4444.189318
4452.253590
4425.803678
4436.853258
4425.570330
4420.420982
4448.442205
4466.246576
4401.043935
4528.529174
4371.208606
4426.708073
4427.097262
4429.421681
4434.603128
4426.584732
4430.999739
4418.036399
4429.461908
4405.608397
4419.837306
4447.597823
4414.992688
4414.638940
4432.189648
4418.741726
4422.118136
4418.613260
4435.572303
4392.170251
4427.601518
4432.105941
4447.968255
4434.920153
4421.275937
4457.764651
4452.882990
4460.926640
4441.948516
4458.661827
4436.376329
4339.140871
4396.802929
4412.316360
4424.869163
4420.964285
4418.958727
4439.692793
4425.040438
4428.324603
4420.426278
4451.434143
4402.850662
4406.481382
4436.278157
4433.746034
4426.229396
4427.885664
4435.216483
4419.667854
4477.511503
4374.700072
4427.727930
4436.302705
4424.863032
4424.284689
4445.408499
4413.075489
4415.782572
4455.444459
4423.228445
4383.131598
4447.870402
4481.501102
4411.865829
4424.693488
4434.353194
4432.121270
4419.542475
4428.050531
4413.708267
4448.810414
4408.376660
4436.600692
4444.221240
4397.671507
4447.102664
4441.363517
4424.008745
4399.349887
4448.803131
4393.781460
4408.757367
4375.226353
4425.679704
4435.211331
4436.246526
4421.798790
4430.663473
4432.250540
4417.688949
4413.039437
4386.481186
4480.157887
4373.208830
4423.074851
4425.293931
4419.965622
4427.015463
4412.149441
4453.269596
4414.870330
4454.895922
4382.180275
4447.924114
4404.843558
4423.246911
4432.918373
4428.551316
4436.193603
4410.038797
4433.530961
4413.640809
4444.456824
4466.780265
4447.801038
4437.494984
4430.519663
4442.934808
4445.832347
4455.413897
4433.729863
4453.364795
4458.860617
4460.512379
4418.911777
4410.107778
4427.607633
4419.549917
4442.718042
4429.257746
4417.299216
4409.208040
4430.555210
4410.830187
4409.083332
4415.095321
4453.441288
4404.385807
4420.075977
4408.855761
4438.385740
4429.177122
4411.459812
4412.846379
4376.718340
4478.243009
4451.788343
4439.124936
4392.952675
4425.923521
4410.587239
4429.329057
4435.273913
4387.992771
4433.285706
4411.611351
4412.013213
4426.113175
4427.642879
4426.344780
4412.998533
4439.550273
4446.772975
4429.359665
4419.975477
4426.177039
4449.688846
4423.422384
4442.200704
4407.290052
4447.412820
4468.218247
4401.646582
4398.670816
4467.777375
4388.914128
4439.403570
4416.702033
4403.591814
4434.869703
4435.253628
4448.831687
4444.014827
4460.959186
4376.241843
4412.260438
4435.300627
4457.931450
4427.371146
4436.897354
4419.178998
4450.983780
4414.350139
4457.278651
4444.969364
4404.967928
4414.378515
4439.762143
4440.884898
4438.048694
4424.314423
4439.420896
4454.755751
4412.950175
4440.016787
4476.163052
4422.475517
4329.006530
4401.387037
4423.377778
4415.403535
4421.536277
4421.714751
4461.219889
4419.711595
4389.504712
4411.368245
4396.249977
4363.776294
4428.081252
4437.125940
4416.230824
4432.692161
4415.743998
4404.653894
4440.611702
4441.798550
4413.767836
4388.244629
4419.894799
4438.275450
4453.678204
4393.736150
4462.136965
4382.836260
4413.147128
4461.325660
4375.559793
4545.594728
4388.376828
4428.647995
4417.899529
4429.709600
4431.994821
4437.986578
4430.228603
4426.979230
4477.256798
4429.335502
4431.831017
4429.710143
4438.887406
4423.651759
4431.853287
4422.671692
4420.237263
4391.334420
4438.467060
4431.644561
4406.138624
4417.987112
4471.334670
4408.632185
4438.474924
4448.707155
4461.475994
4440.425102
4411.009907
4423.135128
4426.858101
4493.313665
4470.886517
4468.249610
4432.628251
4470.403587
4427.046375
4440.645624
4452.269388
4464.370212
4437.324692
4479.201225
4430.709540
4432.246975
4427.159788
4438.140415
4415.397137
4448.666669
4438.434407
4436.297653
4421.057373
4428.998875
4436.230045
4411.166731
4432.874855
4453.292534
4396.863809
4442.082715
4397.969974
4406.288980
4432.060157
4446.355323
4626.835295
4471.691618
4461.939474
4455.507538
4421.599361
4428.328963
4436.750360
4390.291664
4363.095895
4332.759914
4389.595722
4433.874681
4437.790890
4420.731053
4427.647692
4427.995645
4431.810324
4440.923008
4410.386240
4414.779032
4460.031076
4411.860707
4449.837843
4448.513789
4426.904601
4435.930922
4423.340261
4421.396997
4439.876526
4409.214314
4430.249026
4449.928931
4417.479320
4448.136851
4429.678436
4458.149311
4425.982072
4375.932217
4442.239057
4481.446206
4410.494191
4457.018833
4430.364020
4424.963998
4431.350405
4424.613415
4428.969482
4419.277326
4405.510966
4420.162438
4406.356760
4411.456914
4406.069551
4447.473353
4397.049644
4417.964859
4438.939095
4440.530860
4444.692512
4435.834032
4398.138036
4412.511792
4408.507173
4442.998652
4357.707388
4462.452977
4386.990086
4440.523135
4445.738436
4406.508714
4470.447920
4391.918051
4420.754668
4431.196543
4427.740430
4429.699301
4448.198152
4425.105459
4430.756345
4420.537088
4434.950243
4448.140730
4412.709550
4432.398005
4418.204976
4423.733385
4432.824677
4434.683935
4448.060232
4421.723946
4457.461770
4474.052389
4383.177562
4429.693507
4405.586558
4438.105403
4404.394746
4435.016705
4439.683439
4445.154224
4457.530730
4419.348780
4424.262466
4397.927735
4423.705123
4444.032419
4406.230766
4415.162029
4448.415498
4435.953153
4431.588977
4416.205022
4439.144279
4447.305568
4397.451699
4438.843824
4424.026843
4426.922030
4430.567706
4437.072735
4435.690383
4453.026128