# vtk DataFile Version 2.0
mfree iwf
ASCII

DATASET UNSTRUCTURED_GRID
POINTS 6231 float
0.000000 0.000300 0.000000
0.000000 0.000310 0.000000
0.000000 0.000320 0.000000
0.000000 0.000330 0.000000
0.000001 0.000340 0.000000
0.000001 0.000351 0.000000
0.000001 0.000361 0.000000
0.000001 0.000371 0.000000
0.000001 0.000381 0.000000
0.000001 0.000391 0.000000
0.000001 0.000401 0.000000
0.000001 0.000411 0.000000
0.000002 0.000421 0.000000
0.000002 0.000431 0.000000
0.000002 0.000441 0.000000
0.000002 0.000451 0.000000
0.000002 0.000461 0.000000
0.000002 0.000471 0.000000
0.000002 0.000480 0.000000
0.000002 0.000492 0.000000
0.000006 0.000501 0.000000
0.000146 0.000535 0.000000
0.000146 0.000581 0.000000
0.000146 0.000558 0.000000
0.000146 0.000601 0.000000
0.000146 0.000622 0.000000
0.000147 0.000649 0.000000
0.000147 0.000651 0.000000
0.000150 0.000665 0.000000
0.000153 0.000679 0.000000
0.000162 0.000719 0.000000
0.000010 0.000300 0.000000
0.000010 0.000310 0.000000
0.000010 0.000320 0.000000
0.000010 0.000330 0.000000
0.000010 0.000340 0.000000
0.000011 0.000350 0.000000
0.000011 0.000360 0.000000
0.000011 0.000370 0.000000
0.000011 0.000380 0.000000
0.000011 0.000390 0.000000
0.000011 0.000400 0.000000
0.000011 0.000411 0.000000
0.000012 0.000420 0.000000
0.000012 0.000431 0.000000
0.000012 0.000441 0.000000
0.000012 0.000451 0.000000
0.000012 0.000460 0.000000
0.000012 0.000472 0.000000
0.000013 0.000479 0.000000
0.000010 0.000492 0.000000
0.000013 0.000498 0.000000
0.000151 0.000614 0.000000
0.000152 0.000628 0.000000
0.000152 0.000636 0.000000
0.000155 0.000643 0.000000
0.000158 0.000665 0.000000
0.000159 0.000673 0.000000
0.000162 0.000688 0.000000
0.000162 0.000697 0.000000
0.000162 0.000704 0.000000
0.000161 0.000712 0.000000
0.000020 0.000300 0.000000
0.000020 0.000310 0.000000
0.000020 0.000320 0.000000
0.000020 0.000331 0.000000
0.000021 0.000340 0.000000
0.000021 0.000350 0.000000
0.000021 0.000360 0.000000
0.000021 0.000370 0.000000
0.000021 0.000380 0.000000
0.000022 0.000391 0.000000
0.000021 0.000400 0.000000
0.000022 0.000410 0.000000
0.000021 0.000420 0.000000
0.000022 0.000431 0.000000
0.000021 0.000440 0.000000
0.000023 0.000451 0.000000
0.000022 0.000460 0.000000
0.000022 0.000471 0.000000
0.000022 0.000480 0.000000
0.000024 0.000494 0.000000
0.000020 0.000497 0.000000
0.000160 0.000591 0.000000
0.000159 0.000607 0.000000
0.000157 0.000618 0.000000
0.000162 0.000634 0.000000
0.000166 0.000644 0.000000
0.000162 0.000658 0.000000
0.000166 0.000677 0.000000
0.000165 0.000693 0.000000
0.000172 0.000704 0.000000
0.000174 0.000714 0.000000
0.000030 0.000300 0.000000
0.000030 0.000310 0.000000
0.000030 0.000320 0.000000
0.000031 0.000329 0.000000
0.000030 0.000340 0.000000
0.000031 0.000351 0.000000
0.000031 0.000360 0.000000
0.000031 0.000370 0.000000
0.000031 0.000380 0.000000
0.000031 0.000390 0.000000
0.000032 0.000400 0.000000
0.000031 0.000411 0.000000
0.000032 0.000420 0.000000
0.000032 0.000431 0.000000
0.000033 0.000440 0.000000
0.000030 0.000451 0.000000
0.000033 0.000459 0.000000
0.000033 0.000471 0.000000
0.000032 0.000479 0.000000
0.000032 0.000488 0.000000
0.000032 0.000498 0.000000
0.000063 0.000500 0.000000
0.000169 0.000617 0.000000
0.000162 0.000626 0.000000
0.000166 0.000650 0.000000
0.000174 0.000659 0.000000
0.000170 0.000664 0.000000
0.000175 0.000677 0.000000
0.000176 0.000685 0.000000
0.000179 0.000697 0.000000
0.000183 0.000711 0.000000
0.000040 0.000300 0.000000
0.000040 0.000310 0.000000
0.000040 0.000320 0.000000
0.000040 0.000331 0.000000
0.000041 0.000340 0.000000
0.000040 0.000350 0.000000
0.000041 0.000360 0.000000
0.000041 0.000371 0.000000
0.000042 0.000380 0.000000
0.000040 0.000391 0.000000
0.000043 0.000400 0.000000
0.000040 0.000410 0.000000
0.000043 0.000421 0.000000
0.000039 0.000431 0.000000
0.000044 0.000439 0.000000
0.000042 0.000450 0.000000
0.000044 0.000460 0.000000
0.000039 0.000471 0.000000
0.000045 0.000478 0.000000
0.000043 0.000497 0.000000
0.000040 0.000498 0.000000
0.000146 0.000513 0.000000
0.000175 0.000610 0.000000
0.000178 0.000628 0.000000
0.000176 0.000638 0.000000
0.000179 0.000648 0.000000
0.000181 0.000669 0.000000
0.000184 0.000683 0.000000
0.000188 0.000691 0.000000
0.000187 0.000700 0.000000
0.000191 0.000709 0.000000
0.000050 0.000300 0.000000
0.000050 0.000310 0.000000
0.000050 0.000320 0.000000
0.000050 0.000329 0.000000
0.000051 0.000340 0.000000
0.000050 0.000351 0.000000
0.000052 0.000360 0.000000
0.000050 0.000370 0.000000
0.000052 0.000380 0.000000
0.000050 0.000390 0.000000
0.000053 0.000399 0.000000
0.000049 0.000411 0.000000
0.000053 0.000419 0.000000
0.000051 0.000430 0.000000
0.000054 0.000441 0.000000
0.000047 0.000451 0.000000
0.000055 0.000458 0.000000
0.000052 0.000471 0.000000
0.000055 0.000482 0.000000
0.000050 0.000488 0.000000
0.000050 0.000498 0.000000
0.000153 0.000600 0.000000
0.000160 0.000571 0.000000
0.000177 0.000625 0.000000
0.000184 0.000643 0.000000
0.000186 0.000656 0.000000
0.000189 0.000666 0.000000
0.000192 0.000672 0.000000
0.000193 0.000682 0.000000
0.000197 0.000696 0.000000
0.000201 0.000706 0.000000
0.000060 0.000300 0.000000
0.000060 0.000310 0.000000
0.000061 0.000320 0.000000
0.000059 0.000331 0.000000
0.000062 0.000341 0.000000
0.000059 0.000350 0.000000
0.000062 0.000360 0.000000
0.000060 0.000370 0.000000
0.000062 0.000380 0.000000
0.000060 0.000391 0.000000
0.000063 0.000401 0.000000
0.000060 0.000410 0.000000
0.000063 0.000420 0.000000
0.000058 0.000431 0.000000
0.000065 0.000438 0.000000
0.000062 0.000450 0.000000
0.000065 0.000460 0.000000
0.000057 0.000471 0.000000
0.000065 0.000476 0.000000
0.000068 0.000487 0.000000
0.000058 0.000496 0.000000
0.000152 0.000592 0.000000
0.000170 0.000608 0.000000
0.000190 0.000627 0.000000
0.000191 0.000638 0.000000
0.000195 0.000651 0.000000
0.000197 0.000662 0.000000
0.000203 0.000677 0.000000
0.000204 0.000686 0.000000
0.000207 0.000694 0.000000
0.000210 0.000704 0.000000
0.000070 0.000300 0.000000
0.000070 0.000310 0.000000
0.000070 0.000320 0.000000
0.000071 0.000329 0.000000
0.000070 0.000339 0.000000
0.000070 0.000350 0.000000
0.000072 0.000361 0.000000
0.000070 0.000370 0.000000
0.000072 0.000380 0.000000
0.000070 0.000389 0.000000
0.000072 0.000399 0.000000
0.000070 0.000410 0.000000
0.000073 0.000420 0.000000
0.000070 0.000430 0.000000
0.000074 0.000441 0.000000
0.000066 0.000451 0.000000
0.000076 0.000458 0.000000
0.000073 0.000470 0.000000
0.000076 0.000484 0.000000
0.000068 0.000496 0.000000
0.000076 0.000496 0.000000
0.000146 0.000506 0.000000
0.000169 0.000599 0.000000
0.000183 0.000615 0.000000
0.000198 0.000636 0.000000
0.000201 0.000649 0.000000
0.000207 0.000660 0.000000
0.000208 0.000670 0.000000
0.000212 0.000679 0.000000
0.000216 0.000691 0.000000
0.000220 0.000701 0.000000
0.000080 0.000300 0.000000
0.000080 0.000310 0.000000
0.000080 0.000320 0.000000
0.000081 0.000331 0.000000
0.000080 0.000341 0.000000
0.000082 0.000351 0.000000
0.000080 0.000359 0.000000
0.000081 0.000369 0.000000
0.000082 0.000380 0.000000
0.000080 0.000391 0.000000
0.000084 0.000401 0.000000
0.000080 0.000410 0.000000
0.000083 0.000419 0.000000
0.000080 0.000431 0.000000
0.000083 0.000439 0.000000
0.000082 0.000449 0.000000
0.000088 0.000465 0.000000
0.000075 0.000470 0.000000
0.000085 0.000473 0.000000
0.000086 0.000483 0.000000
0.000084 0.000496 0.000000
0.000150 0.000579 0.000000
0.000148 0.000573 0.000000
0.000194 0.000620 0.000000
0.000202 0.000628 0.000000
0.000208 0.000645 0.000000
0.000213 0.000656 0.000000
0.000219 0.000666 0.000000
0.000221 0.000679 0.000000
0.000225 0.000688 0.000000
0.000229 0.000697 0.000000
0.000090 0.000300 0.000000
0.000090 0.000310 0.000000
0.000091 0.000320 0.000000
0.000090 0.000330 0.000000
0.000091 0.000339 0.000000
0.000090 0.000349 0.000000
0.000091 0.000361 0.000000
0.000092 0.000371 0.000000
0.000090 0.000380 0.000000
0.000092 0.000389 0.000000
0.000091 0.000399 0.000000
0.000090 0.000411 0.000000
0.000093 0.000421 0.000000
0.000091 0.000429 0.000000
0.000092 0.000440 0.000000
0.000095 0.000454 0.000000
0.000085 0.000455 0.000000
0.000095 0.000469 0.000000
0.000105 0.000480 0.000000
0.000089 0.000495 0.000000
0.000095 0.000495 0.000000
0.000148 0.000524 0.000000
0.000167 0.000589 0.000000
0.000165 0.000581 0.000000
0.000185 0.000602 0.000000
0.000211 0.000638 0.000000
0.000221 0.000652 0.000000
0.000223 0.000666 0.000000
0.000230 0.000675 0.000000
0.000234 0.000684 0.000000
0.000239 0.000694 0.000000
0.000100 0.000300 0.000000
0.000100 0.000310 0.000000
0.000100 0.000320 0.000000
0.000100 0.000330 0.000000
0.000102 0.000341 0.000000
0.000099 0.000351 0.000000
0.000102 0.000359 0.000000
0.000099 0.000369 0.000000
0.000102 0.000379 0.000000
0.000101 0.000391 0.000000
0.000101 0.000402 0.000000
0.000102 0.000409 0.000000
0.000102 0.000419 0.000000
0.000100 0.000431 0.000000
0.000104 0.000441 0.000000
0.000100 0.000447 0.000000
0.000105 0.000460 0.000000
0.000102 0.000469 0.000000
0.000095 0.000482 0.000000
0.000107 0.000491 0.000000
0.000101 0.000494 0.000000
0.000151 0.000549 0.000000
0.000149 0.000567 0.000000
0.000153 0.000558 0.000000
0.000211 0.000628 0.000000
0.000219 0.000639 0.000000
0.000225 0.000647 0.000000
0.000233 0.000660 0.000000
0.000238 0.000668 0.000000
0.000242 0.000681 0.000000
0.000248 0.000690 0.000000
0.000110 0.000300 0.000000
0.000110 0.000310 0.000000
0.000110 0.000320 0.000000
0.000111 0.000331 0.000000
0.000109 0.000339 0.000000
0.000111 0.000349 0.000000
0.000111 0.000361 0.000000
0.000110 0.000371 0.000000
0.000113 0.000380 0.000000
0.000108 0.000389 0.000000
0.000113 0.000398 0.000000
0.000111 0.000410 0.000000
0.000114 0.000422 0.000000
0.000110 0.000428 0.000000
0.000114 0.000439 0.000000
0.000109 0.000451 0.000000
0.000116 0.000460 0.000000
0.000111 0.000471 0.000000
0.000117 0.000480 0.000000
0.000111 0.000493 0.000000
0.000119 0.000492 0.000000
0.000151 0.000520 0.000000
0.000154 0.000529 0.000000
0.000176 0.000590 0.000000
0.000192 0.000611 0.000000
0.000193 0.000601 0.000000
[...]
POINT_DATA 6231
SCALARS density float 1
LOOKUP_TABLE default
4386.418252
4424.343692
4420.490383
4416.255098
4421.111079
4424.516634
4423.932537
4426.363255
4427.825278
4427.669703
4426.571243
4429.110334
4425.100273
4425.776672
4427.247383
4441.647803
4422.281007
4428.847853
4419.090115
4425.945007
4414.681708
4730.881283
4614.304009
4629.228749
4531.209987
4559.709871
4429.239257
4448.177438
4428.977686
4457.425287
4413.341157
4398.823502
4417.843377
4415.447361
4417.033779
4429.385791
4420.859295
4419.305614
4425.229801
4423.416633
4425.505203
4422.459385
4430.373993
4429.283258
4445.055629
4415.675588
4424.970648
4412.210400
4467.497567
4433.873804
4473.433094
4412.272723
4401.970303
4365.744620
4363.528817
4424.858741
4384.026000
4406.194075
4411.125071
4406.839685
4414.911794
4454.085888
4402.468983
4414.174231
4424.088868
4424.866464
4418.623388
4417.368455
4430.673799
4429.394206
4415.585964
4437.304115
4422.165819
4434.977826
4411.360793
4427.300182
4415.954245
4472.099808
4389.283392
4452.325281
4325.740291
4439.665195
4399.601750
4438.991480
4471.938061
4462.022399
4495.184665
4439.649513
4376.162141
4428.709061
4425.241518
4469.781448
4398.761732
4409.091515
4428.568489
4422.773462
4412.969805
4417.514323
4432.218914
4421.164635
4423.501761
4421.805303
4432.704543
4409.017217
4441.768436
4420.631238
4452.406636
4396.592125
4443.281612
4393.851599
4498.350224
4339.829130
4624.011237
4355.338242
4408.971683
4403.390011
4475.384829
4435.817845
4433.943871
4497.525393
4429.376738
4439.157116
4440.134621
4435.450085
4422.136908
4424.615761
4409.215884
4437.059557
4430.874405
4426.665893
4409.470217
4435.836118
4425.613337
4431.675238
4419.314572
4442.731426
4397.628406
4450.840799
4408.530511
4452.806361
4387.746451
4477.721612
4314.658690
4413.696451
4383.429905
4612.798367
4460.280709
4464.143510
4392.508902
4464.080092
4405.314237
4437.428826
4443.297079
4359.967891
4439.141096
4423.195858
4421.447315
4428.905275
4436.032975
4400.036243
4430.358460
4432.104402
4434.455036
4405.409918
4438.468159
4419.275010
4435.942116
4427.515273
4440.479053
4395.816416
4460.455848
4369.750179
4489.637259
4362.688798
4552.278565
4375.483569
4415.908739
4480.323855
4454.417147
4474.886998
4395.358365
4481.723525
4435.851990
4397.314660
4445.275016
4421.588984
4411.870089
4421.991633
4427.023443
4412.386870
4449.949782
4438.425539
4407.568263
4425.989780
4430.778455
4430.826109
4420.345797
4431.159458
4409.924034
4442.871645
4402.936109
4468.289962
4413.123606
4490.051756
4351.436385
4546.432530
4422.972381
4421.762791
4436.614939
4473.176234
4439.823990
4444.597579
4445.244561
4437.159862
4449.072286
4393.426422
4433.824455
4417.838052
4442.263304
4422.250578
4419.212737
4441.246480
4404.828352
4446.570736
4430.624635
4420.859085
4426.921579
4412.506261
4431.710538
4426.409657
4437.275352
4410.564042
4436.876597
4409.111125
4468.731805
4427.845649
4388.538052
4377.008454
4572.200477
4460.018944
4457.073372
4426.501049
4469.965349
4431.753345
4402.690900
4446.083142
4411.873659
4419.098060
4434.940259
4422.496387
4409.767316
4440.628768
4404.042808
4438.360661
4448.388771
4403.152602
4438.377370
4422.179681
4441.763859
4427.649114
4413.548866
4423.193247
4449.372207
4433.950072
4471.428136
4462.178317
4349.413030
4526.791081
4403.485496
4430.627141
4406.047515
4438.593212
4466.917113
4450.742857
4439.758366
4465.350298
4415.872773
4436.414147
4413.392159
4422.879296
4420.202374
4443.225826
4441.245496
4408.508481
4443.598383
4394.125255
4450.672196
4441.571734
4401.428274
4433.781087
4405.595123
4459.722646
4422.257678
4404.432904
4389.366875
4433.738513
4452.443158
4416.127204
4408.321717
4404.321070
4378.291888
4481.462930
4418.587897
4460.058333
4467.406435
4433.401403
4456.896119
4406.758495
4439.373440
4413.874132
4417.442838
4433.034207
4429.901241
4398.920033
4443.064879
4420.692943
4426.382073
4441.452487
4398.280145
4437.489170
4434.678638
4416.197975
4420.618530
4403.148701
4442.773996
4449.213343
4406.961863
4434.527223
4404.486088
4450.077779
4431.271637
4430.641722
4400.192836
4444.025235
4429.863679
4446.187893
4484.297569
4442.252206
4449.817600
4413.360689
4405.328858
4426.156429
4430.668187
4408.274945
4445.800832
4450.891149
4395.297059
4448.625109
4408.010738
4448.757280
4444.141437
4397.977506
4435.535435
4431.957178
4433.123437
4413.316028
4410.404298
4453.595183
4407.696336
4423.289689
4406.980118
4413.912828
4429.900820
4453.034618
4422.213252
4394.042708
4432.268017
4420.756832
4456.046630
4457.950803
4430.157745
4409.202773
4427.437893
4427.912543
4432.314206
4426.816999
4393.824672
4449.788864
4438.904778
4397.880586
4448.280764
4401.316623
4456.959338
4424.341177
4402.418643
4414.923165
4438.247195
4414.858792
4422.473871
4417.451214
4452.626077
4446.224717
4415.965648
4504.852225
4447.662239
4491.663054
4499.608574
4418.542308
4414.869011
4445.777065
4382.296852
4428.673016
4402.911022
4427.240341
4416.938039
4428.176308
4410.513805
4447.181437
4443.329988
4393.563351
4446.271922
4418.442656
4410.856410
4450.796037
4402.355212
4442.133698
4430.744909
4422.304822
4424.072545
4444.445654
4421.177515
4402.682764
4438.813068
4443.003590
4484.316152
4465.359436
4436.921664
4414.281677
4498.166962
4440.553661
4486.105584
4475.223098
4476.025964
4402.365333
4423.740321
4429.777756
4443.036091
4422.465867
4419.149350
4391.639347
4455.749957
4446.733433
4395.972603
4449.702102
4396.769424
4436.774777
4439.888587
4391.856067
4417.253922
4429.178704
4411.299096
4450.273838
4519.438555
4427.783426
4406.482992
4462.158784
4438.284904
4458.810266
4450.749317
4432.381988
4483.549358
4392.110734
4449.724107
4426.830853
4413.542317
4429.049745
4424.476746
4419.289464
4414.953883
4436.189438
4443.690347
4418.391692
4394.192380
4447.868407
4437.730677
4403.890645
4450.096963
4395.790569
4447.320547
4420.109206
4435.670878
4415.711020
4445.693504
4393.390509
4459.418647
4428.804561
4446.772738
4455.479969
4458.204045
4444.108953
4462.737918
4441.559346
4403.562524
4445.833413
4423.141300
4417.509002
4421.299947
4427.759629
4424.989183
4445.750386
4421.601291
4410.513344
4409.439363
4448.565709
4440.495954
4394.914446
4438.297662
4405.718220
4420.411266
4443.543030
4389.881559
4435.861681
4409.969552
4443.134777
4406.776199
4408.744796
4501.744565
4452.578833
4479.398370
4448.425645
4453.183215
4417.373863
4453.067938
4441.137386
4415.909751
4443.734640
4412.675959
4416.188394
4444.412308
4423.986462
4413.501747
4407.519578
4450.818623
4442.323174
4403.034057
4390.821505
4448.693782
4446.801911
4400.479744
4435.630997
4390.980814
4448.396664
4419.426542
4438.200411
4425.542954
4434.202489
4430.018757
4442.147038
4415.205989
4452.616420
4460.642248
4451.985775
4457.722705
4433.556876
4446.936092
4420.585496
4414.114466
4417.370242
4429.574594
4432.479791
4404.485829
4450.019727
4442.875202
4401.546811
4401.793985
4448.081238
4452.675030
4395.249027
4388.586929
4443.515726
4441.501822
4390.814320
4445.412038
4383.050147
4438.480852
4374.577365
4458.799547
4447.340829
4437.036917
4445.637451
4464.211721
4459.603126
4447.363285
4458.723507
4424.882242
4408.723238
4403.356158
4454.648306
4424.214949
4424.913671
4425.495196
4438.074899
4441.744806
4394.189586
4444.689812
4447.080943
4400.322928
4401.624316
4439.093450
4458.394043
4391.800649
4400.509564
4440.621309
4416.150101
4410.800412
4437.178529
4420.388376
4432.135218
4385.371661
4462.388862
4431.809070
4438.680079
4441.068986
4464.066258
4441.135703
4451.052308
4486.779218
4434.803617
4424.088016
4413.933183
4429.435248
4422.165634
4427.769558
4401.633261
4446.298746
4449.801628
4393.304666
4431.007040
4444.975120
4414.760578
4397.852333
4433.884680
4442.365650
4405.554982
4409.235337
4432.805594
4417.494128
4415.186970
4409.079965
4433.163476
4425.419887
4419.971133
4457.712784
4435.438030
4432.115948
4460.908854
4422.221883
4477.870313
4432.995013
4416.691667
4426.699499
4422.418664
4422.069698
4432.241175
4436.559421
4433.523901
4390.473295
4451.351749
4453.069680
4393.742871
4409.253649
4445.675394
4436.309235
4392.352249
4429.215805
4427.933330
4407.452831
4414.915797
4423.946876
4444.393966
4409.910296
4396.272779
4469.495737
4428.694056
4447.081210
4406.339940
4443.148409
4454.449693
4415.631119
4474.603184
4434.078438
4450.793266
4418.762001
4439.846028
4431.159830
4414.097689
4418.807552
4441.741796
4444.760259
4386.031729
4452.216591
4455.459846
4390.217055
4402.061170
4442.748414
4438.253125
4399.127251
4429.643657
4419.917327
4408.626107
4415.416871
4442.501645
4439.129962
4435.395804
4433.039556
4471.409125
4453.488251
4489.979454
4381.336721
4452.415823
4461.077784
4413.964303
4460.215202
4434.658331
4430.146373
4409.517879
4440.854367
4441.696286
4413.589011
4402.898808
4445.712627
4453.549029
4384.127700
4450.021281
4454.506083
4391.804352
4406.785143
4414.222168
4440.321881
4404.604944
4422.355269
4422.752717
4416.010352
4426.200487
4456.050712
4415.460819
4433.263700
4452.838619
4393.814340
4442.822973
4473.661365
4406.268303
4454.438636
4450.987293
4426.416022
4422.264606
4440.590109
4443.096656
4401.752654
4435.007768
4445.656224
4420.131399
4392.740747
4447.435044
4456.920691
4385.304914
4428.149423
4452.160085
4407.129055
4414.193150
4394.506488
4452.934666
4429.950828
4426.987935
4408.033479
4437.807958
4418.809135
4434.189021
4451.046898
4406.661993
4452.423081
4420.602607
4466.632642
4457.629449
4407.880215
4429.103987
4429.314919
4432.331203
4405.645603
4447.550925
4448.759141
4399.608561
4424.174056
4444.111216
4436.200340
4384.111475
4455.643746
4461.102072
4384.380235
4402.951421
4450.746970
4430.109764
4404.831566
4401.852061
4424.470198
4433.719483
4442.649685
4433.201918
4418.600736
4443.815432
4458.665933
4421.541144
4468.740009
4457.640790
4469.800101
4428.362565
4426.275715
4424.888399
4427.298074
4439.909609
4439.779096
4400.658095
4449.400521
4453.545543
4398.367047
4415.569981
4443.372560
4447.285786
4381.154411
4463.504790
4463.526755
4373.404677
4415.903434
4426.022554
4438.962566
4418.230073
4419.525980
4415.555059
4433.018585
4449.522886
4411.886043
4468.490033
4456.764026
4442.697625
4454.812264
4454.703446
4475.812676
4423.747916
4440.830147
4434.792266
4423.836226
4413.638312
4444.652385
4447.298990
4397.144505
4444.449185
4451.595572
4405.628103
4405.624999
4446.676116
4450.692228
4388.892173
4463.807766
4445.864283
4387.609854
4411.173724
4421.835274
4431.514090
4432.461285
4430.656263
4423.709294
4456.898635
4422.539919
4455.562715
4471.307399
4490.205124
4447.905803
4467.265695
4439.012740
4432.886401
4412.835426
4437.772958
4443.799878
4426.081849
4403.425997
4450.253948
4455.700573
4394.354303
4433.493580
4446.540415
4422.405849
4389.400558
4446.683025
4460.518553
4387.463819
4438.088328
4424.330401
4427.436479
4430.140732
4419.896349
4447.282093
4412.159410
4443.226319
4412.825274
4471.575960
4428.439247
4468.255276
4445.701996
4460.914650
4432.481650
4425.433527
4442.058383
4446.081892
4406.157161
4432.883159
4446.574465
4430.099758
4399.541123
4449.374279
4462.791316
4394.346934
4418.780115
4448.133121
4439.816575
4390.647085
4454.003509
4458.660797
4376.490509
4439.599503
4436.623529
4397.402766
4438.842539
4440.011139
4441.661858
4461.747500
4457.767137
4450.101669
4457.048878
4460.074630
4457.730854
4429.014117
4429.334410
4431.694265
4408.472854
4450.821437
4449.213279
4408.807019
4423.176980
4446.359326
4442.503879
4396.614427
4453.934697
4463.099672
4394.518290
4413.504722
4448.878985
4451.733450
4404.279382
4470.345567
4433.032653
4417.594716
4439.257588
4448.377759
4439.522725
4424.776912
4460.652595
4427.104068
4465.255096
4442.179343
4461.828583
4455.740268
4435.011244
4431.196170
4433.946001
4440.358765
4445.242180
4404.977353
4445.216686
4453.988854
4411.067013
4414.659469
4444.477322
4449.928279
4395.450875
4455.147186
4455.995705
4402.644665
4403.554449
4454.273350
4463.287526
4385.285993
4448.583098
4424.334223
4412.381812
4448.679219
4452.328313
4451.142887
4467.992017
4450.224358
4462.795385
4457.805261
4455.617359
4432.377523
4432.611228
4431.565870
4430.661024
4413.887968
4448.896207
4451.529218
4401.165121
4441.331738
4451.069383
4420.949739
4408.535953
4443.080115
4464.325759
4391.572782
4448.385225
4452.959847
4414.018411
4424.184822
4464.843947
4458.754651
4394.007027
4448.098310
4432.321450
4421.778807
4442.603005
4459.686561
4437.998352
4456.274626
4452.288849
4455.441922
4435.095995
4438.582346
4426.866298
4435.976551
4439.549796
4434.958901
4406.796113
4448.882086
4458.095181
4400.532650
4434.434082
4446.841469
4431.581282
4401.319082
4454.739009
4463.954753
4396.376202
4436.290814
4442.399677
4446.451200
4410.280002
4464.013250
4455.913310
4421.406070
4461.619049
4443.299205
4459.447477
4456.168278
4456.823035
4448.486319
4456.752639
4438.746742
4430.035904
4433.585132
4432.057413
4418.824833
4427.481436
4449.865612
4443.689753
4402.031538
4448.089221
4464.357613
4401.845469
4434.276280
4436.704683
4447.082118
4396.830275
4470.527667
4467.824145
4388.893940
4436.177686
4455.950750
4463.932335
4399.717631
4458.431030
4444.196824
4412.796997
4463.722685
4442.192003
4467.102602
4438.646641
4453.898982
4431.160653
4422.343064
4436.819761
4420.204034
4446.677641
4438.640439
4424.757593
4412.248469
4451.634778
4449.832841
4398.915199
4452.078818
4456.827392
4406.092313
4428.014958
4438.329515
4460.328908
4390.971764
4468.846749
4446.706036
4394.369863
4418.137945
4453.231121
4464.479526
4415.616650
4451.538990
4437.344395
4455.741012
4440.718335
4455.876605
4451.467123
4432.569489
4439.358813
4447.122350
4419.867675
4446.508262
4415.480354
4443.221815
4446.186775
4433.866288
4405.811352
4443.371519
4462.141777
4396.725938
4450.492383
4447.810563
4413.974263
4424.516140
4453.781125
4468.906465
4392.030124
4455.238564
4444.786141
4450.634399
4404.150358
4455.233357
4459.040267
4427.589071
4467.380208
4433.415041
4457.710289
4447.572004
4450.065886
4435.446320
4417.351490
4443.249872
4419.319749
4431.037712
4447.117428
4415.412425
4424.805933
4450.855668
4443.355955
4397.548981
4453.244480
4463.010331
4399.053229
4449.852470
4435.717412
4439.593961
4424.755422
4468.197141
4480.140209
4373.906881
4442.357231
4451.450964
4444.414303
4405.807069
4445.838045
4448.447018
4446.336197
4457.957375
4443.197271
4439.485676
4423.231647
4445.526150
4452.059038
4410.833851
4449.767283
4414.825566
4452.012039
4450.058179
4415.517854
4417.033084
4447.366698
4453.138798
4394.898267
4455.117207
4457.521208
4405.930345
4441.517419
4430.704760
4455.929026
4423.740490
4471.060051
4428.237332
4401.247235
4454.510933
4461.034122
4444.860302
4441.493173
4447.763957
4451.300166
4448.241766
4431.432547
4439.003328
4441.565872
4406.655379
4451.403675
4448.199575
4405.195009
4456.167885
4404.233655
4452.769192
4440.112718
4420.976226
4410.762115
4448.319737
4466.701694
4390.863406
4458.063219
4437.822802
4419.552378
4434.802278
4434.789129
4473.368049
4412.496175
4453.875994
4427.457114
4441.725505
4431.564488
4451.571534
4451.594013
4445.110256
4450.094438
4436.607975
4436.015752
4419.852709
4452.319037
4454.646350
4407.008473
4447.401736
4425.987518
4427.992449
4463.254064
4402.332202
4439.125886
4444.380910
4424.470026
4403.755640
4455.123711
4469.058252
4393.225114
4467.166490
4398.694785
4453.982776
4416.319102
4454.555576
4468.049816
4402.798792
4442.180173
4447.777479
4449.948686
4437.740490
4449.368804
4446.844385
4439.949756
4436.940370
4442.060528
4436.131022
4406.663952
4453.257101
4462.552272
4400.261371
4452.121953
4401.094994
4458.993212
4451.248875
4399.901561
4433.248399
4447.094702
4439.849210
4403.658791
4460.920111
4451.998975
4393.360182
4473.419088
4417.763202
4447.900013
4396.819976
4455.573766
4447.249131
4413.769004
4446.966011
4429.121190
4457.170956
4447.442715
4447.489858
4432.654889
4429.675988
4433.509953
4441.612504
4446.097647
4405.632572
4449.782975
4445.882884
4406.151761
4458.160110
4397.911120
4455.804069
4448.640756
4403.218326
4420.976600
4444.112012
4460.161170
4410.327274
4470.384489
4403.029677
4410.636573
4466.046219
4442.864924
4475.836825
4392.936684
4461.950111
4432.953395
4448.628687
4441.827591
4449.593048
4438.111755
4423.744033
4444.142123
4439.116428
4421.290893
4426.266275
4448.430357
4464.038965
4407.301047
4439.405701
4416.421088
4434.133291
4463.028407
4396.666483
4447.452392
4446.446171
4419.020166
4409.179688
4440.207260
4469.528814
4415.593390
4454.825674
4392.500012
4442.056486
4425.910885
4455.496093
4466.291830
4391.441566
4471.379297
4422.327182
4453.150716
4428.816517
4440.130210
4446.834164
4411.637690
4442.217310
4446.986013
4408.497990
4415.582557
4440.701757
4462.929819
4420.752841
4440.906174
4407.464733
4452.916062
4461.199941
4394.134562
4434.799960
4449.499477
4443.556678
4398.930560
4449.807872
4444.791351
4412.589104
4457.679731
4447.941569
4437.944804
4436.104866
4452.152164
4454.347657
4435.468039
4456.036556
4439.191500
4442.416974
4412.073399
4451.552321
4448.538241
4409.052097
4430.030650
4463.522858
4441.016682
4412.153988
4413.771667
4445.504002
4424.506229
4445.753448
4404.285667
4461.609828
4459.336855
4397.196796
4433.551122
4448.529211
4457.036314
4419.326236
4442.077046
4414.843796
4456.017331
4415.893938
4448.386973
4447.625962
4437.785592
4455.109533
4441.352124
4438.545022
4427.500433
4437.672092
4449.807467
4406.002352
4452.501147
4458.438169
4394.302595
4416.792685
4461.566446
4458.917094
4422.382033
4429.284360
4423.850762
4439.897574
4447.596734
4405.681207
4464.167618
4436.842786
4408.428990
4421.782773
4441.216306
4482.041787
4403.286089
4453.884536
4440.879623
4449.262393
4420.522520
4440.079839
4459.683741
4439.313760
4433.029566
4439.066565
4440.726160
4416.395430
4436.298669
4453.007690
4405.158788
4451.251023
4461.367875
4402.448274
4413.459342
4434.485032
4449.928282
4423.800934
4440.244059
4411.490049
4448.113286
4453.867464
4404.735001
4452.704340
4436.899550
4431.127780
4409.389284
4453.385330
4411.024685
4427.038419
4424.055710
4456.377731
4451.111054
4444.333228
4449.076692
4441.156007
4435.472695
4421.316872
4439.806260
4449.216136
4401.710055
4448.859692
4449.544950
4409.932995
4419.448491
4471.198095
4449.052186
4412.576259
4421.187877
4430.291560
4433.670384
4439.863670
4411.900532
4455.859845
4455.681436
4396.371644
4460.553699
4429.459717
4464.290644
4417.908862
4445.628788
4428.488713
4418.903157
4430.749435
4432.455995
4450.328475
4434.597748
4425.593019
4447.437514
4435.288308
4418.356838
4436.305125
4454.472143
4400.154065
4458.925223
4463.328330
4391.697019
4400.993243
4463.279025
4455.265424
4415.312312
4442.398977
4412.300387
4445.955780
4440.187361
4417.699785
4450.657598
4422.233351
4429.511035
4438.559261
4460.540878
4432.309133
4435.297439
4447.606346
4438.708223
4449.694733
4451.983153
4437.884259
4433.686588
4437.486708
4418.451671
4444.633023
4443.412239
4406.286718
4442.643092
4446.197868
4406.936059
4446.509019
4470.788208
4416.129658
4409.709789
4446.464544
4440.548407
4420.735197
4450.194045
4409.134190
4447.684190
4450.560011
4418.452108
4445.016926
4454.502243
4434.003750
4430.932884
4448.163997
4417.867152
4445.620364
4438.012030
4442.639914
4433.606108
4430.559593
4426.814266
4444.657026
4434.629823
4414.050726
4442.002322
4448.592243
4398.266832
4450.482731
4448.879372
4409.527320
4402.574118
4461.888779
4450.578333
4405.136816
4442.958164
4422.644053
4439.423154
4444.979292
4409.180255
4452.993914
4447.185100
4412.089966
4437.904725
4444.690201
4445.308976
4437.838885
4445.657675
4448.116490
4446.819895
4427.207411
4440.611932
4437.237525
4428.184650
4419.249554
4448.901692
4439.368057
4412.677753
4440.246465
4447.590369
4402.199279
4454.248480
4468.522958
4405.789681
4398.888580
4453.592538
4449.326281
4409.104403
4446.026008
4410.148557
4451.010011
4446.498765
4412.088720
4449.290976
4442.956752
4416.111103
4433.979943
4446.278275
4439.365723
4441.685350
4448.180257
4436.410028
4437.288424
4415.648164
4440.377139
4441.485020
4424.319075
4409.637226
4450.675308
4449.801797
4405.213751
4438.769664
4445.486874
4404.724545
4436.125977
4465.288462
4424.077430
4410.520128
4444.331922