# vtk DataFile Version 2.0
mfree iwf
ASCII

DATASET UNSTRUCTURED_GRID
POINTS 6231 float
0.000000 0.000300 0.000000
0.000000 0.000310 0.000000
0.000000 0.000320 0.000000
0.000000 0.000330 0.000000
0.000000 0.000340 0.000000
0.000000 0.000350 0.000000
0.000000 0.000360 0.000000
0.000001 0.000370 0.000000
0.000001 0.000380 0.000000
0.000001 0.000390 0.000000
0.000001 0.000400 0.000000
0.000001 0.000410 0.000000
0.000001 0.000420 0.000000
0.000001 0.000430 0.000000
0.000001 0.000440 0.000000
0.000001 0.000450 0.000000
0.000002 0.000460 0.000000
0.000002 0.000470 0.000000
0.000002 0.000480 0.000000
0.000001 0.000492 0.000000
0.000006 0.000501 0.000000
0.000928 0.001031 0.000000
0.001001 0.001068 0.000000
0.000945 0.001039 0.000000
0.001013 0.001073 0.000000
0.001035 0.001078 0.000000
0.001085 0.001083 0.000000
0.001093 0.001081 0.000000
0.001105 0.001076 0.000000
0.001117 0.001073 0.000000
0.001148 0.001074 0.000000
0.000010 0.000300 0.000000
0.000010 0.000310 0.000000
0.000010 0.000320 0.000000
0.000010 0.000330 0.000000
0.000010 0.000340 0.000000
0.000010 0.000350 0.000000
0.000010 0.000360 0.000000
0.000011 0.000370 0.000000
0.000011 0.000380 0.000000
0.000011 0.000390 0.000000
0.000011 0.000400 0.000000
0.000011 0.000410 0.000000
0.000011 0.000420 0.000000
0.000011 0.000430 0.000000
0.000011 0.000440 0.000000
0.000011 0.000450 0.000000
0.000012 0.000460 0.000000
0.000011 0.000472 0.000000
0.000013 0.000478 0.000000
0.000009 0.000492 0.000000
0.000013 0.000498 0.000000
0.001054 0.001075 0.000000
0.001070 0.001076 0.000000
0.001078 0.001077 0.000000
0.001084 0.001074 0.000000
0.001100 0.001068 0.000000
0.001111 0.001067 0.000000
0.001125 0.001063 0.000000
0.001136 0.001064 0.000000
0.001142 0.001062 0.000000
0.001144 0.001070 0.000000
0.000020 0.000300 0.000000
0.000020 0.000310 0.000000
0.000020 0.000320 0.000000
0.000020 0.000330 0.000000
0.000021 0.000340 0.000000
0.000020 0.000350 0.000000
0.000021 0.000360 0.000000
0.000020 0.000370 0.000000
0.000020 0.000380 0.000000
0.000021 0.000390 0.000000
0.000020 0.000400 0.000000
0.000022 0.000410 0.000000
0.000020 0.000420 0.000000
0.000022 0.000430 0.000000
0.000020 0.000440 0.000000
0.000023 0.000451 0.000000
0.000021 0.000460 0.000000
0.000022 0.000470 0.000000
0.000021 0.000482 0.000000
0.000024 0.000494 0.000000
0.000020 0.000497 0.000000
0.001021 0.001064 0.000000
0.001051 0.001070 0.000000
0.001061 0.001072 0.000000
0.001066 0.001070 0.000000
0.001075 0.001063 0.000000
0.001090 0.001066 0.000000
0.001117 0.001060 0.000000
0.001132 0.001059 0.000000
0.001139 0.001051 0.000000
0.001146 0.001048 0.000000
0.000030 0.000300 0.000000
0.000030 0.000310 0.000000
0.000030 0.000320 0.000000
0.000031 0.000330 0.000000
0.000030 0.000340 0.000000
0.000030 0.000350 0.000000
0.000030 0.000360 0.000000
0.000030 0.000371 0.000000
0.000031 0.000380 0.000000
0.000031 0.000390 0.000000
0.000031 0.000400 0.000000
0.000031 0.000410 0.000000
0.000031 0.000420 0.000000
0.000031 0.000430 0.000000
0.000031 0.000440 0.000000
0.000031 0.000450 0.000000
0.000031 0.000459 0.000000
0.000036 0.000473 0.000000
0.000029 0.000478 0.000000
0.000032 0.000488 0.000000
0.000032 0.000497 0.000000
0.000063 0.000500 0.000000
0.001042 0.001065 0.000000
0.001059 0.001056 0.000000
0.001084 0.001057 0.000000
0.001094 0.001049 0.000000
0.001101 0.001061 0.000000
0.001105 0.001054 0.000000
0.001116 0.001051 0.000000
0.001123 0.001049 0.000000
0.001145 0.001040 0.000000
0.000040 0.000300 0.000000
0.000040 0.000310 0.000000
0.000040 0.000320 0.000000
0.000040 0.000330 0.000000
0.000040 0.000341 0.000000
0.000041 0.000350 0.000000
0.000040 0.000360 0.000000
0.000041 0.000369 0.000000
0.000041 0.000380 0.000000
0.000040 0.000390 0.000000
0.000042 0.000399 0.000000
0.000040 0.000410 0.000000
0.000042 0.000419 0.000000
0.000041 0.000431 0.000000
0.000042 0.000439 0.000000
0.000043 0.000450 0.000000
0.000042 0.000460 0.000000
0.000037 0.000469 0.000000
0.000045 0.000477 0.000000
0.000043 0.000496 0.000000
0.000040 0.000498 0.000000
0.000829 0.000888 0.000000
0.001050 0.001057 0.000000
0.001068 0.001056 0.000000
0.001076 0.001050 0.000000
0.001086 0.001057 0.000000
0.001105 0.001045 0.000000
0.001126 0.001040 0.000000
0.001124 0.001029 0.000000
0.001135 0.001042 0.000000
0.001143 0.001031 0.000000
0.000050 0.000300 0.000000
0.000050 0.000310 0.000000
0.000050 0.000320 0.000000
0.000050 0.000330 0.000000
0.000051 0.000340 0.000000
0.000050 0.000350 0.000000
0.000051 0.000361 0.000000
0.000050 0.000371 0.000000
0.000051 0.000380 0.000000
0.000051 0.000389 0.000000
0.000052 0.000400 0.000000
0.000049 0.000411 0.000000
0.000052 0.000420 0.000000
0.000050 0.000430 0.000000
0.000053 0.000440 0.000000
0.000048 0.000451 0.000000
0.000054 0.000458 0.000000
0.000053 0.000469 0.000000
0.000056 0.000483 0.000000
0.000048 0.000488 0.000000
0.000050 0.000498 0.000000
0.001040 0.001072 0.000000
0.000996 0.001059 0.000000
0.001062 0.001049 0.000000
0.001077 0.001036 0.000000
0.001093 0.001040 0.000000
0.001108 0.001038 0.000000
0.001098 0.001032 0.000000
0.001117 0.001038 0.000000
0.001132 0.001030 0.000000
0.001139 0.001020 0.000000
0.000060 0.000300 0.000000
0.000060 0.000310 0.000000
0.000060 0.000320 0.000000
0.000060 0.000331 0.000000
0.000061 0.000339 0.000000
0.000059 0.000350 0.000000
0.000062 0.000358 0.000000
0.000060 0.000368 0.000000
0.000062 0.000380 0.000000
0.000059 0.000391 0.000000
0.000063 0.000399 0.000000
0.000060 0.000409 0.000000
0.000063 0.000419 0.000000
0.000059 0.000430 0.000000
0.000065 0.000440 0.000000
0.000060 0.000449 0.000000
0.000065 0.000460 0.000000
0.000055 0.000472 0.000000
0.000064 0.000475 0.000000
0.000068 0.000486 0.000000
0.000058 0.000496 0.000000
0.001029 0.001071 0.000000
0.001040 0.001056 0.000000
0.001057 0.001039 0.000000
0.001072 0.001041 0.000000
0.001086 0.001030 0.000000
0.001090 0.001022 0.000000
0.001118 0.001020 0.000000
0.001110 0.001028 0.000000
0.001128 0.001019 0.000000
0.001136 0.001011 0.000000
0.000070 0.000300 0.000000
0.000070 0.000310 0.000000
0.000070 0.000320 0.000000
0.000070 0.000329 0.000000
0.000071 0.000340 0.000000
0.000070 0.000351 0.000000
0.000071 0.000359 0.000000
0.000068 0.000373 0.000000
0.000082 0.000377 0.000000
0.000071 0.000389 0.000000
0.000072 0.000400 0.000000
0.000069 0.000411 0.000000
0.000074 0.000421 0.000000
0.000068 0.000429 0.000000
0.000075 0.000438 0.000000
0.000067 0.000451 0.000000
0.000077 0.000458 0.000000
0.000073 0.000470 0.000000
0.000076 0.000486 0.000000
0.000068 0.000495 0.000000
0.000076 0.000496 0.000000
0.000821 0.000866 0.000000
0.001030 0.001058 0.000000
0.001050 0.001047 0.000000
0.001069 0.001019 0.000000
0.001085 0.001041 0.000000
0.001101 0.001022 0.000000
0.001110 0.001019 0.000000
0.001104 0.001011 0.000000
0.001124 0.001010 0.000000
0.001132 0.001002 0.000000
0.000080 0.000300 0.000000
0.000080 0.000310 0.000000
0.000081 0.000321 0.000000
0.000080 0.000331 0.000000
0.000081 0.000340 0.000000
0.000080 0.000350 0.000000
0.000082 0.000361 0.000000
0.000075 0.000370 0.000000
0.000074 0.000383 0.000000
0.000080 0.000392 0.000000
0.000090 0.000397 0.000000
0.000079 0.000410 0.000000
0.000085 0.000417 0.000000
0.000079 0.000431 0.000000
0.000086 0.000445 0.000000
0.000077 0.000448 0.000000
0.000085 0.000463 0.000000
0.000074 0.000470 0.000000
0.000087 0.000473 0.000000
0.000085 0.000482 0.000000
0.000084 0.000495 0.000000
0.001020 0.001069 0.000000
0.000991 0.001064 0.000000
0.001054 0.001027 0.000000
0.001064 0.001034 0.000000
0.001077 0.001025 0.000000
0.001084 0.001014 0.000000
0.001094 0.001012 0.000000
0.001114 0.001008 0.000000
0.001121 0.001001 0.000000
0.001128 0.000993 0.000000
0.000090 0.000300 0.000000
0.000090 0.000310 0.000000
0.000090 0.000319 0.000000
0.000090 0.000329 0.000000
0.000091 0.000340 0.000000
0.000089 0.000350 0.000000
0.000093 0.000362 0.000000
0.000087 0.000368 0.000000
0.000093 0.000379 0.000000
0.000089 0.000387 0.000000
0.000084 0.000404 0.000000
0.000093 0.000410 0.000000
0.000087 0.000425 0.000000
0.000096 0.000426 0.000000
0.000089 0.000435 0.000000
0.000097 0.000455 0.000000
0.000087 0.000453 0.000000
0.000097 0.000471 0.000000
0.000106 0.000480 0.000000
0.000089 0.000494 0.000000
0.000094 0.000495 0.000000
0.000837 0.000904 0.000000
0.001024 0.001052 0.000000
0.001012 0.001059 0.000000
0.001043 0.001046 0.000000
0.001062 0.001015 0.000000
0.001088 0.001004 0.000000
0.001102 0.001003 0.000000
0.001108 0.000997 0.000000
0.001117 0.000992 0.000000
0.001124 0.000984 0.000000
0.000100 0.000300 0.000000
0.000100 0.000310 0.000000
0.000101 0.000321 0.000000
0.000099 0.000331 0.000000
0.000102 0.000339 0.000000
0.000098 0.000350 0.000000
0.000101 0.000358 0.000000
0.000100 0.000371 0.000000
0.000100 0.000381 0.000000
0.000100 0.000391 0.000000
0.000100 0.000400 0.000000
0.000103 0.000405 0.000000
0.000101 0.000418 0.000000
0.000100 0.000436 0.000000
0.000110 0.000443 0.000000
0.000096 0.000445 0.000000
0.000107 0.000460 0.000000
0.000098 0.000467 0.000000
0.000094 0.000481 0.000000
0.000106 0.000491 0.000000
0.000101 0.000494 0.000000
0.000950 0.001043 0.000000
0.000960 0.001048 0.000000
0.000985 0.001061 0.000000
0.001066 0.001025 0.000000
0.001077 0.001010 0.000000
0.001078 0.001000 0.000000
0.001098 0.000994 0.000000
0.001089 0.000991 0.000000
0.001112 0.000986 0.000000
0.001120 0.000975 0.000000
0.000110 0.000300 0.000000
0.000110 0.000310 0.000000
0.000110 0.000319 0.000000
0.000110 0.000329 0.000000
0.000111 0.000342 0.000000
0.000111 0.000351 0.000000
0.000110 0.000361 0.000000
0.000112 0.000370 0.000000
0.000111 0.000378 0.000000
0.000112 0.000389 0.000000
0.000113 0.000400 0.000000
0.000110 0.000414 0.000000
0.000116 0.000422 0.000000
0.000106 0.000427 0.000000
0.000112 0.000432 0.000000
0.000106 0.000449 0.000000
0.000115 0.000461 0.000000
0.000111 0.000471 0.000000
0.000116 0.000480 0.000000
0.000111 0.000493 0.000000
0.000119 0.000492 0.000000
0.000897 0.000998 0.000000
0.000846 0.000924 0.000000
0.001018 0.001047 0.000000
0.001038 0.001035 0.000000
0.001028 0.001032 0.000000
[...]
POINT_DATA 6231
SCALARS density float 1
LOOKUP_TABLE default
4414.338376
4427.050123
4422.875154
4424.010008
4423.716034
4421.495639
4424.424692
4425.409781
4427.871316
4429.361384
4425.924739
4429.806741
4428.691895
4433.041244
4432.231043
4438.288135
4423.524219
4432.459506
4413.605707
4424.435035
4411.094133
4423.912463
4426.621459
4429.886222
4436.065712
4418.834148
4398.789391
4427.781884
4448.935795
4449.333262
4417.616239
4416.335010
4422.577064
4427.111360
4428.277728
4427.149485
4429.310359
4428.454378
4431.683467
4429.152167
4432.742833
4427.998006
4434.481956
4424.915522
4430.967532
4415.949566
4431.800397
4410.942428
4440.493834
4463.444783
4459.791785
4416.010593
4408.062621
4417.950164
4439.253510
4511.416835
4402.969670
4407.976025
4424.152694
4400.493002
4450.838590
4439.082613
4419.226891
4431.393901
4427.891134
4419.450233
4426.538970
4429.789821
4420.590301
4429.962418
4415.716085
4427.815080
4424.537139
4432.158354
4422.821841
4445.740184
4414.947848
4471.055422
4400.768574
4455.216432
4350.336266
4451.705283
4421.489512
4427.286789
4439.678387
4415.736153
4503.409993
4323.479469
4357.354381
4414.261051
4428.626377
4424.173281
4403.871263
4428.950434
4428.935536
4422.486606
4435.997627
4435.859802
4426.366954
4430.416200
4437.723938
4431.567483
4445.393575
4412.713873
4438.308575
4412.990318
4442.504529
4405.251230
4429.408717
4396.830415
4450.836082
4375.618835
4549.998260
4372.191599
4431.586075
4470.810729
4442.045978
4474.575820
4342.966747
4473.892136
4456.560760
4414.645981
4474.797013
4433.178727
4429.328933
4424.786910
4434.461213
4433.659034
4420.137945
4436.231358
4434.727105
4425.920743
4414.464294
4427.069823
4410.118907
4454.206941
4413.043492
4440.198741
4422.631810
4449.856479
4389.212494
4507.747884
4311.085232
4419.655287
4385.169873
4429.348789
4390.156119
4429.527036
4431.192322
4509.261044
4440.677239
4405.746721
4493.364821
4443.750212
4418.298724
4428.494794
4434.726634
4430.767632
4428.503420
4438.950814
4438.780969
4413.863867
4446.555760
4434.502529
4440.381903
4432.909801
4421.684370
4410.135421
4455.100896
4368.036843
4478.527092
4361.224494
4471.742929
4358.258317
4537.795942
4383.497840
4438.749627
4429.133208
4465.620688
4443.247476
4449.809013
4441.227885
4399.186996
4406.696194
4411.436142
4420.697664
4432.277269
4437.260646
4417.541670
4440.930040
4427.255934
4429.289127
4435.572743
4432.656705
4403.142649
4428.048846
4424.119338
4442.860181
4418.252061
4437.791100
4416.028387
4467.235809
4396.766628
4520.332873
4381.150566
4481.013888
4432.979457
4416.391357
4395.002264
4405.968031
4433.069871
4451.481660
4425.025265
4420.189312
4402.868648
4411.860935
4434.201192
4428.616756
4423.026619
4434.341768
4433.220724
4416.144471
4436.637670
4422.208141
4408.074104
4381.573875
4461.272212
4384.584594
4436.047917
4404.313315
4435.996868
4437.093718
4459.671049
4440.930871
4452.578619
4445.559416
4414.335319
4392.427832
4433.997759
4459.699380
4431.219105
4421.511391
4388.274395
4429.984516
4454.299690
4437.806832
4438.375277
4415.125509
4428.851631
4428.937599
4434.485122
4398.875491
4434.669519
4430.660158
4424.313589
4462.557462
4445.963886
4420.799027
4430.075080
4441.480333
4431.170244
4440.206652
4458.053821
4388.360892
4449.563835
4451.179163
4366.192413
4463.765786
4417.949341
4429.935286
4415.751671
4438.171053
4430.067387
4392.130967
4447.680367
4433.360391
4404.688606
4436.248742
4437.768169
4436.543407
4428.907680
4423.413995
4425.644072
4430.265355
4426.442447
4426.359359
4440.593606
4459.000076
4436.427026
4440.322191
4387.695797
4423.955225
4456.830779
4410.548032
4377.607435
4438.103434
4434.864907
4429.101607
4427.654917
4414.142467
4425.749373
4419.453496
4436.276043
4489.300695
4397.389850
4387.227635
4435.978904
4444.097002
4429.268341
4413.342342
4430.700093
4425.637798
4428.177807
4450.335513
4415.165979
4422.847150
4443.123017
4404.660152
4441.915771
4396.724476
4442.727728
4447.513814
4418.324260
4390.765103
4450.052267
4459.789718
4418.818412
4471.003932
4419.061638
4436.924208
4418.009838
4426.924539
4434.618555
4427.240488
4453.552509
4465.112891
4380.528633
4406.813754
4469.507467
4450.351149
4424.460603
4422.216693
4436.542465
4444.609402
4401.702170
4448.464953
4419.071033
4428.343265
4446.484320
4415.966411
4451.034654
4400.245196
4442.251677
4408.776843
4454.097703
4410.968659
4428.903328
4471.272096
4390.425571
4461.057900
4408.523904
4412.718160
4437.931755
4436.327926
4416.411495
4384.455810
4406.440286
4448.328680
4459.931849
4409.114194
4423.467103
4452.457079
4431.030750
4427.881933
4421.402794
4437.302161
4449.540029
4407.165567
4425.480721
4430.293637
4403.962915
4464.273241
4392.844606
4417.003060
4445.073451
4452.703225
4430.887348
4370.685830
4446.489358
4384.174118
4439.030633
4431.673414
4392.650240
4438.153575
4413.276766
4427.576664
4456.079648
4444.903223
4420.694268
4345.740320
4460.728369
4387.181277
4418.438112
4437.912285
4437.282488
4427.697140
4435.852702
4406.931913
4458.907261
4445.902280
4400.726684
4455.586238
4419.855549
4444.722476
4385.807827
4417.592991
4457.294373
4389.099465
4446.231671
4393.039962
4458.291672
4496.549114
4417.812026
4438.663092
4434.225630
4423.472050
4423.366684
4413.177735
4436.769840
4458.254271
4463.024678
4467.882685
4496.510226
4453.678447
4434.773306
4435.501191
4424.217928
4427.003957
4444.181880
4421.036296
4413.970838
4418.980030
4448.960035
4386.139055
4457.238671
4416.074305
4444.506213
4419.716480
4458.600746
4366.031663
4430.821687
4502.576352
4583.430722
4384.039422
4372.757451
4419.942057
4426.206168
4444.153847
4452.310834
4398.468519
4444.377816
4424.802965
4406.915759
4404.688751
4446.848093
4431.359971
4427.753790
4445.998954
4421.430410
4428.696531
4396.991450
4448.029837
4457.821430
4403.372300
4434.869178
4428.468499
4447.812877
4446.638028
4389.930222
4451.999674
4413.484423
4510.794881
4347.930186
4325.600188
4464.501002
4396.415337
4415.720844
4430.355371
4434.427674
4483.814936
4443.931049
4440.270951
4430.317561
4401.011562
4424.245476
4413.246061
4436.136017
4424.126756
4433.956451
4415.379272
4442.592539
4452.032982
4399.324375
4398.223213
4421.026751
4461.757019
4424.722749
4403.499077
4411.923445
4430.110841
4436.853773
4438.459990
4399.332774
4479.854468
4463.953337
4424.348528
4410.874378
4427.434536
4450.476138
4402.370267
4374.714186
4460.002557
4460.795780
4424.076949
4406.068862
4430.337776
4430.905651
4439.690498
4422.780957
4437.100651
4443.593074
4414.867583
4419.314453
4440.040060
4444.176929
4431.940092
4389.811831
4457.346799
4409.387788
4446.306432
4447.380398
4395.170189
4438.142384
4396.381075
4477.648698
4378.041280
4392.564818
4421.052905
4421.067887
4439.028372
4442.657768
4402.903485
4466.239931
4446.491112
4401.885624
4466.396089
4431.448030
4438.497173
4425.242040
4430.657914
4429.265852
4422.072003
4441.115427
4426.531997
4428.262139
4390.914633
4440.946573
4452.733641
4433.148965
4428.782939
4416.324288
4412.068062
4416.540296
4446.436481
4377.330003
4441.405804
4420.064974
4440.168114
4391.295584
4423.429751
4433.830047
4442.281246
4445.713251
4407.755145
4473.260021
4479.372296
4412.130184
4417.796639
4422.175771
4423.807564
4428.588996
4431.729248
4407.843859
4453.622271
4404.320077
4445.010458
4456.490569
4420.154329
4391.048500
4443.798934
4410.916904
4432.216074
4449.487997
4416.229731
4447.347630
4372.141624
4466.321144
4418.236962
4548.578269
4378.049777
4466.371090
4421.097833
4438.489269
4439.345636
4373.520802
4464.789163
4389.739545
4413.755690
4410.214943
4420.160536
4435.228505
4426.979915
4430.507258
4439.570454
4410.583177
4448.509041
4426.245480
4396.485407
4436.074489
4415.021799
4442.580968
4433.975217
4418.032212
4416.535951
4438.480879
4441.919453
4466.626796
4480.027221
4405.289030
4388.248067
4435.732790
4414.762476
4426.598645
4462.400261
4428.298613
4417.231520
4431.570005
4451.368653
4454.543742
4423.496146
4414.778584
4433.550139
4427.518862
4423.137474
4437.281747
4421.400891
4442.854506
4404.492793
4443.760085
4432.511769
4400.545568
4427.857044
4411.490204
4449.780365
4444.228383
4400.428686
4464.745311
4434.509185
4399.836649
4392.780679
4458.974553
4418.198811
4449.352934
4418.264684
4424.634990
4428.457133
4392.075420
4371.068049
4448.304093
4357.863296
4429.539436
4441.243011
4422.802352
4439.091737
4433.595038
4425.187952
4431.930850
4408.313287
4434.442227
4436.934916
4385.825607
4460.313281
4393.639484
4442.918705
4476.643339
4391.272287
4383.499349
4456.950851
4423.028101
4414.240447
4446.729717
4451.385090
4426.843544
4423.766795
4425.550578
4473.218325
4414.202604
4438.148856
4480.603552
4342.573869
4487.671525
4386.259171
4421.383959
4430.904553
4428.960502
4422.675378
4429.200408
4432.375513
4434.703096
4427.449109
4408.160194
4415.743416
4448.832813
4398.269766
4436.669166
4409.235844
4434.195110
4430.695517
4415.415602
4411.733363
4453.707895
4401.228737
4430.080440
4424.476761
4415.736819
4447.400049
4405.044044
4449.994339
4463.929290
4430.401710
4388.845804
4444.267137
4439.299743
4444.555447
4428.525688
4427.336812
4430.850161
4440.694126
4410.944184
4432.137769
4402.220195
4447.863020
4437.169940
4398.743194
4456.240966
4431.315051
4438.907229
4440.508724
4391.427258
4460.510812
4398.354876
4455.144072
4433.331753
4471.170094
4416.414818
4422.147261
4451.865694
4424.325907
4454.200801
4452.219781
4429.237717
4465.011299
4421.849886
4422.688216
4434.929624
4430.072450
4441.125483
4416.837580
4434.415536
4421.749775
4438.757985
4432.204073
4407.542794
4433.023277
4426.198987
4460.491776
4461.438625
4436.617752
4417.870736
4447.180358
4441.225838
4397.047357
4449.235523
4363.231138
4430.270128
4429.049954
4414.726167
4451.133708
4431.861554
4438.732970
4391.584012
4448.742874
4425.318378
4444.834187
4412.604893
4423.391924
4424.596339
4437.358758
4412.260503
4440.332313
4430.187547
4413.914078
4428.067079
4445.765647
4414.034748
4449.547853
4375.063048
4474.841903
4381.986114
4398.429057
4394.391411
4447.730142
4430.487806
4461.755406
4422.079578
4432.010035
4427.421644
4437.408461
4425.926171
4382.353740
4412.516409
4428.490853
4413.895487
4412.588596
4481.301834
4406.419010
4442.460318
4422.721792
4433.955867
4435.490265
4424.312658
4422.796092
4459.221084
4402.709995
4438.988612
4400.100749
4446.279645
4419.650727
4401.400354
4419.490482
4438.957565
4437.032711
4462.558953
4403.388202
4461.390381
4419.353194
4442.364090
4411.522569
4426.044772
4433.298507
4429.269108
4407.347045
4431.733573
4406.813882
4452.342666
4408.135418
4401.932536
4430.537195
4434.997236
4427.831007
4421.613846
4444.933167
4417.492669
4439.906967
4416.637785
4434.811460
4416.842539
4416.780530
4427.102553
4450.406513
4435.413188
4441.093523
4385.943340
4451.471566
4395.546358
4455.917183
4422.304163
4431.036673
4406.101418
4432.139222
4419.432737
4429.646534
4472.203944
4401.481844
4402.510400
4434.406320
4412.603368
4435.024710
4410.094476
4428.325869
4428.500368
4424.702648
4440.229765
4427.367765
4414.086986
4439.624614
4420.350535
4438.597489
4443.711471
4406.046000
4443.357198
4417.149343
4414.893280
4424.895987
4436.554804
4412.090348
4378.125823
4383.647317
4464.599916
4436.600305
4410.579612
4415.730129
4407.921207
4450.162540
4449.285651
4411.558216
4468.329845
4416.283060
4422.583094
4446.815092
4431.916470
4434.120512
4433.961270
4404.523783
4450.167114
4429.063918
4425.055588
4442.052755
4398.075976
4435.406076
4444.342178
4409.322381
4441.471876
4454.616475
4417.124846
4403.109126
4415.636968
4489.073296
4458.646301
4436.592141
4440.938403
4436.214172
4437.718367
4423.831042
4424.312917
4430.142188
4438.731644
4431.894311
4438.183202
4417.976901
4434.428084
4429.568174
4421.830149
4433.652877
4446.651123
4420.144520
4425.150247
4415.277167
4443.277453
4435.261610
4420.370588
4430.254541
4437.010857
4434.605488
4405.931052
4445.775256
4458.354215
4394.312835
4451.507604
4389.566687
4385.643359
4426.814568
4438.309460
4424.095254
4392.323570
4459.275954
4399.030681
4422.348780
4416.418732
4471.186207
4352.617694
4422.732992
4433.430786
4439.652223
4422.451078
4430.308972
4417.536122
4453.168545
4441.554407
4405.668137
4428.367809
4432.970031
4425.350796
4419.605027
4424.590728
4461.649778
4426.797618
4417.395378
4404.895302
4395.511405
4465.882046
4460.132597
4444.705822
4402.585387
4398.524100
4421.306973
4446.104666
4441.363141
4382.762590
4461.298031
4419.981511
4469.231590
4418.874863
4430.034349
4435.314748
4421.231435
4427.610833
4442.320285
4401.289120
4422.141416
4450.407960
4413.084541
4431.448452
4429.043288
4452.512526
4422.553010
4427.367781
4404.396059
4438.912498
4466.026957
4454.946059
4330.255212
4473.243366
4460.958688
4429.127374
4478.914253
4430.179837
4446.329781
4461.326685
4431.034334
4402.205211
4409.106640
4407.792975
4438.311526
4429.159049
4427.673604
4436.312645
4417.611560
4432.429876
4444.803744
4423.462645
4414.412636
4416.982985
4447.556155
4391.643688
4444.057528
4403.306501
4452.139132
4395.255886
4450.382454
4372.975369
4449.908720
4322.479206
4496.689869
4436.032135
4420.626565
4417.972680
4498.759813
4409.398365
4444.253024
4411.970388
4475.485623
4364.792531
4429.158859
4447.674317
4437.997120
4426.825485
4428.380429
4430.160199
4406.959890
4424.865256
4426.737853
4446.006787
4432.378940
4415.315162
4440.539387
4426.995813
4400.446689
4465.304104
4392.214727
4467.385084
4387.926593
4474.671863
4460.712141
4505.443846
4419.610003
4414.066575
4380.751812
4433.762637
4400.381019
4423.329616
4462.060134
4453.537486
4442.799880
4358.297393
4454.268430
4429.320699
4425.380518
4431.036676
4437.446550
4407.186098
4428.811798
4433.738258
4419.475016
4405.037167
4427.565491
4421.048524
4429.027002
4433.914925
4404.617017
4459.379524
4417.160053
4432.779179
4430.645317
4434.838674
4507.448814
4444.760896
4425.679197
4435.163687
4413.353525
4401.091071
4456.911383
4413.549107
4437.783161
4450.927383
4443.205106
4416.079666
4420.033127
4434.583952
4436.825018
4406.844433
4438.702152
4429.825809
4421.574804
4423.289072
4436.397275
4410.921802
4457.667605
4447.644072
4418.264820
4391.637151
4412.948226
4414.131956
4447.789565
4406.121875
4397.845046
4428.133399
4391.255855
4417.846488
4420.995287
4422.988562
4395.136305
4446.448490
4376.279809
4392.798821
4483.914525
4470.059461
4411.421847
4427.936969
4433.074178
4409.716449
4447.408644
4444.451255
4432.089849
4419.125645
4426.519742
4410.984171
4410.613174
4460.988849
4418.627188
4435.777489
4445.796559
4440.524738
4465.327292
4388.220419
4448.013775
4430.087599
4452.358224
4430.974142
4456.432129
4420.052372
4438.169471
4443.914035
4470.763761
4474.530840
4435.482777
4377.793845
4423.140495
4397.405037
4429.236777
4425.494872
4440.197238
4421.953575
4386.848255
4417.961604
4439.013042
4434.781680
4449.169350
4445.307009
4432.183524
4421.285517
4412.262414
4426.665261
4428.049562
4433.166629
4438.125600
4407.408024
4445.389812
4438.008064
4428.604974
4421.375479
4425.633860
4407.154941
4441.906695
4455.029636
4418.392129
4515.554017
4385.717870
4443.240797
4423.443776
4429.599597
4422.449724
4438.206387
4417.825729
4447.212712
4445.256732
4425.374461
4431.080326
4446.173654
4397.927435
4411.668161
4452.332746
4409.830524
4435.671989
4410.939309
4442.939729
4397.975548
4415.129832
4431.966614
4443.224774
4435.653639
4405.742557
4479.087971
4436.145985
4457.724985
4432.108924
4446.222657
4430.159893
4339.116888
4393.034808
4408.919408
4422.823375
4424.522092
4425.245409
4409.263911
4428.737647
4381.388187
4434.838524
4429.532519
4419.037346
4404.320142
4422.621798
4444.591563
4416.420326
4416.835166
4427.991724
4416.788563
4471.546349
4384.936368
4427.401791
4437.933625
4425.777006
4424.714955
4437.123256
4385.445598
4425.213790
4469.871702
4431.179273
4370.476409
4458.390943
4473.387610
4417.563683
4423.954214
4436.442423
4422.049734
4444.882732
4427.329201
4437.294612
4449.656277
4456.972565
4452.312861
4398.362375
4391.865534
4452.674511
4440.719190
4431.460166
4397.103306
4451.518777
4396.781952
4416.936971
4376.983041
4426.782805
4434.191981
4436.461222
4415.860264
4445.454352
4420.854698
4408.220929
4401.390061
4393.666305
4464.044624
4372.662621
4425.582182
4429.778368
4428.504434
4416.316345
4436.437157
4405.683796
4419.505313
4410.229584
4416.881082
4436.507097
4420.472029
4414.470824
4436.400437
4428.301428
4428.507866
4397.634100
4435.153490
4412.678343
4444.839622
4471.194169
4448.175166
4438.922251
4426.560968
4449.346226
4435.669571
4481.037208
4434.186798
4445.982813
4451.492360
4459.998637
4417.986008
4396.527697
4422.487348
4432.719167
4432.589318
4428.892403
4423.230172
4453.581449
4417.060466
4405.333975
4438.273459
4421.267128
4448.270648
4417.875928
4412.156048
4409.402052
4452.357275
4403.857443
4428.190896
4405.815456
4376.560608
4472.912074
4452.325731
4437.779994
4415.661131
4422.737522
4393.187600
4460.098196
4414.221639
4396.492257
4380.349851
4407.122447
4400.708723
4431.510615
4426.045992
4429.043900
4422.945295
4419.492140
4425.099310
4451.611181
4434.252733
4412.879209
4435.135450
4433.032779
4446.798718
4420.384161
4448.219781
4467.689371
4394.637477
4387.977093
4476.128505
4395.031418
4439.811574
4417.167106
4399.950031
4435.384877
4419.194050
4439.839308
4443.415868
4447.437430
4398.281108
4410.072720
4436.801690
4465.478128
4429.192064
4426.697877
4429.555362
4437.168508
4442.828730
4454.978489
4461.419372
4408.921286
4425.217450
4437.763758
4416.685144
4418.053081
4424.371384
4443.634630
4449.890705
4422.317924
4429.202044
4462.446344
4422.829142
4326.718096
4404.581705
4423.632954
4420.166907
4423.399455
4424.872765
4474.375167
4415.654560
4424.392429
4449.903010
4392.265182
4374.931481
4428.896037
4425.865612
4432.796796
4400.566045
4430.162447
4403.934121
4416.855708
4416.865234
4416.143287
4432.058732
4437.250553
4439.424887
4436.194091
4400.698071
4468.820450
4379.792343
4418.679723
4469.215963
4383.422731
4544.807345
4388.051043
4429.134270
4429.251276
4433.203353
4450.633806
4449.984236
4431.357509
4429.584044
4480.791387
4450.256650
4433.140245
4435.315254
4431.450818
4429.463802
4446.225033
4418.034648
4434.411504
4407.424794
4451.172745
4433.743990
4418.827427
4400.170815
4431.167282
4405.537197
4450.722110
4438.239924
4458.963742
4433.342624
4412.505997
4423.942570
4426.125139
4487.660346
4444.159674
4457.372533
4429.155601
4454.091746
4451.547090
4461.277371
4435.494046
4469.513223
4408.121444
4476.647979
4435.687278
4433.668043
4413.531266
4440.195924
4410.797297
4450.378742
4427.171764
4443.726580
4430.301580
4434.178666
4427.638842
4427.770655
4425.059987
4453.027158
4382.806283
4450.490258
4398.080752
4412.719281
4430.272754
4447.493797
4548.168563
4457.087586
4448.404769
4445.778870
4449.242103
4434.168110
4440.202286
4394.067468
4361.761953
4350.103014
4391.141918
4424.612358
4436.391433
4430.335741
4427.214016
4427.303169
4445.584823
4458.459705
4432.279439
4409.887865
4453.618920
4416.969407
4467.768620
4421.189975
4436.739987
4440.860148
4422.805424
4393.116138
4440.427944
4411.907428
4422.590962
4448.158470
4420.928902
4420.608391
4421.269839
4451.251972
4400.408108
4357.191652
4432.970590
4472.452530
4422.727479
4447.171596
4432.816752
4424.814822
4425.225423
4423.804606
4435.301707
4392.997336
4417.761961
4422.088121
4452.824229
4411.749266
4414.554964
4445.894656
4416.054731
4412.517899
4424.943894
4448.288818
4447.901906
4441.154120
4401.315514
4415.234205
4427.050531
4437.570609
4374.815682
4460.102917
4397.664060
4417.059377
4438.275074
4445.630189
4471.878555
4391.776545
4420.191327
4433.095970
4418.543379
4423.591207
4441.021629
4441.478279
4428.659481
4433.652260
4435.184604
4383.728322
4461.618236
4387.716786
4425.267602
4435.968380
4446.066544
4438.235494
4434.504810
4417.549253
4456.417175
4478.729724
4378.876626
4423.804024
4425.034061
4434.355953
4410.955051
4428.703763
4446.781358
4448.430414
4436.361025
4446.766798
4419.064881
4393.669114
4421.487371
4439.154750
4431.529518
4408.346321
4426.314524
4425.878291
4412.171414
4435.828420
4417.379961
4460.097564
4428.922291
4451.802523
4391.446692
4440.019281
4423.856948
4441.204247
4449.831754
4459.787679