# vtk DataFile Version 2.0
mfree iwf
ASCII

DATASET UNSTRUCTURED_GRID
POINTS 6231 float
0.000000 0.000300 0.000000
0.000000 0.000310 0.000000
0.000000 0.000320 0.000000
0.000000 0.000330 0.000000
0.000000 0.000340 0.000000
0.000000 0.000350 0.000000
0.000000 0.000360 0.000000
0.000001 0.000370 0.000000
0.000001 0.000380 0.000000
0.000001 0.000390 0.000000
0.000001 0.000400 0.000000
0.000001 0.000410 0.000000
0.000001 0.000420 0.000000
0.000001 0.000430 0.000000
0.000001 0.000440 0.000000
0.000001 0.000450 0.000000
0.000002 0.000460 0.000000
0.000002 0.000470 0.000000
0.000002 0.000480 0.000000
0.000001 0.000492 0.000000
0.000006 0.000501 0.000000
0.000969 0.001056 0.000000
0.001042 0.001091 0.000000
0.000986 0.001063 0.000000
0.001055 0.001096 0.000000
0.001077 0.001100 0.000000
0.001126 0.001104 0.000000
0.001134 0.001103 0.000000
0.001146 0.001097 0.000000
0.001159 0.001095 0.000000
0.001189 0.001095 0.000000
0.000010 0.000300 0.000000
0.000010 0.000310 0.000000
0.000010 0.000320 0.000000
0.000010 0.000330 0.000000
0.000010 0.000340 0.000000
0.000010 0.000350 0.000000
0.000010 0.000360 0.000000
0.000011 0.000370 0.000000
0.000011 0.000380 0.000000
0.000011 0.000390 0.000000
0.000011 0.000400 0.000000
0.000011 0.000410 0.000000
0.000011 0.000420 0.000000
0.000011 0.000430 0.000000
0.000011 0.000440 0.000000
0.000011 0.000450 0.000000
0.000012 0.000460 0.000000
0.000011 0.000472 0.000000
0.000013 0.000478 0.000000
0.000009 0.000492 0.000000
0.000013 0.000498 0.000000
0.001095 0.001097 0.000000
0.001111 0.001098 0.000000
0.001119 0.001099 0.000000
0.001125 0.001096 0.000000
0.001141 0.001090 0.000000
0.001152 0.001088 0.000000
0.001166 0.001084 0.000000
0.001177 0.001085 0.000000
0.001183 0.001083 0.000000
0.001185 0.001091 0.000000
0.000020 0.000300 0.000000
0.000020 0.000310 0.000000
0.000020 0.000320 0.000000
0.000020 0.000330 0.000000
0.000021 0.000340 0.000000
0.000020 0.000350 0.000000
0.000021 0.000360 0.000000
0.000020 0.000370 0.000000
0.000020 0.000380 0.000000
0.000021 0.000390 0.000000
0.000020 0.000400 0.000000
0.000022 0.000410 0.000000
0.000020 0.000420 0.000000
0.000022 0.000430 0.000000
0.000020 0.000440 0.000000
0.000023 0.000451 0.000000
0.000020 0.000460 0.000000
0.000022 0.000470 0.000000
0.000021 0.000482 0.000000
0.000024 0.000494 0.000000
0.000020 0.000497 0.000000
0.001062 0.001086 0.000000
0.001092 0.001092 0.000000
0.001102 0.001094 0.000000
0.001107 0.001092 0.000000
0.001116 0.001085 0.000000
0.001132 0.001088 0.000000
0.001158 0.001081 0.000000
0.001173 0.001080 0.000000
0.001179 0.001072 0.000000
0.001187 0.001069 0.000000
0.000030 0.000300 0.000000
0.000030 0.000310 0.000000
0.000029 0.000320 0.000000
0.000031 0.000330 0.000000
0.000030 0.000340 0.000000
0.000031 0.000350 0.000000
0.000030 0.000360 0.000000
0.000031 0.000371 0.000000
0.000031 0.000380 0.000000
0.000031 0.000390 0.000000
0.000031 0.000400 0.000000
0.000031 0.000410 0.000000
0.000031 0.000420 0.000000
0.000031 0.000430 0.000000
0.000031 0.000440 0.000000
0.000030 0.000450 0.000000
0.000031 0.000459 0.000000
0.000036 0.000473 0.000000
0.000029 0.000477 0.000000
0.000032 0.000488 0.000000
0.000032 0.000497 0.000000
0.000063 0.000500 0.000000
0.001083 0.001088 0.000000
0.001100 0.001078 0.000000
0.001126 0.001077 0.000000
0.001135 0.001071 0.000000
0.001142 0.001083 0.000000
0.001145 0.001075 0.000000
0.001156 0.001072 0.000000
0.001163 0.001071 0.000000
0.001186 0.001061 0.000000
0.000040 0.000300 0.000000
0.000040 0.000310 0.000000
0.000040 0.000320 0.000000
0.000040 0.000330 0.000000
0.000040 0.000340 0.000000
0.000041 0.000350 0.000000
0.000040 0.000360 0.000000
0.000041 0.000369 0.000000
0.000041 0.000380 0.000000
0.000040 0.000390 0.000000
0.000042 0.000399 0.000000
0.000041 0.000410 0.000000
0.000042 0.000420 0.000000
0.000040 0.000430 0.000000
0.000042 0.000439 0.000000
0.000042 0.000450 0.000000
0.000042 0.000460 0.000000
0.000037 0.000469 0.000000
0.000045 0.000477 0.000000
0.000043 0.000496 0.000000
0.000040 0.000498 0.000000
0.000867 0.000914 0.000000
0.001091 0.001079 0.000000
0.001109 0.001078 0.000000
0.001116 0.001072 0.000000
0.001126 0.001080 0.000000
0.001146 0.001066 0.000000
0.001167 0.001061 0.000000
0.001165 0.001051 0.000000
0.001176 0.001063 0.000000
0.001183 0.001052 0.000000
0.000050 0.000300 0.000000
0.000050 0.000310 0.000000
0.000050 0.000320 0.000000
0.000049 0.000330 0.000000
0.000052 0.000340 0.000000
0.000050 0.000349 0.000000
0.000051 0.000361 0.000000
0.000050 0.000371 0.000000
0.000052 0.000380 0.000000
0.000050 0.000389 0.000000
0.000052 0.000400 0.000000
0.000049 0.000410 0.000000
0.000053 0.000419 0.000000
0.000050 0.000430 0.000000
0.000053 0.000440 0.000000
0.000048 0.000451 0.000000
0.000054 0.000458 0.000000
0.000052 0.000469 0.000000
0.000055 0.000483 0.000000
0.000048 0.000488 0.000000
0.000050 0.000498 0.000000
0.001081 0.001094 0.000000
0.001037 0.001082 0.000000
0.001103 0.001070 0.000000
0.001117 0.001058 0.000000
0.001134 0.001061 0.000000
0.001149 0.001059 0.000000
0.001139 0.001054 0.000000
0.001158 0.001059 0.000000
0.001173 0.001051 0.000000
0.001179 0.001041 0.000000
0.000060 0.000300 0.000000
0.000060 0.000310 0.000000
0.000060 0.000321 0.000000
0.000060 0.000330 0.000000
0.000061 0.000340 0.000000
0.000059 0.000350 0.000000
0.000062 0.000359 0.000000
0.000059 0.000368 0.000000
0.000061 0.000380 0.000000
0.000059 0.000391 0.000000
0.000063 0.000399 0.000000
0.000060 0.000409 0.000000
0.000063 0.000419 0.000000
0.000058 0.000430 0.000000
0.000065 0.000440 0.000000
0.000060 0.000449 0.000000
0.000065 0.000460 0.000000
0.000055 0.000472 0.000000
0.000064 0.000475 0.000000
0.000068 0.000486 0.000000
0.000058 0.000496 0.000000
0.001071 0.001093 0.000000
0.001081 0.001078 0.000000
0.001098 0.001061 0.000000
0.001113 0.001063 0.000000
0.001127 0.001051 0.000000
0.001130 0.001043 0.000000
0.001159 0.001042 0.000000
0.001150 0.001050 0.000000
0.001168 0.001040 0.000000
0.001176 0.001032 0.000000
0.000070 0.000300 0.000000
0.000070 0.000310 0.000000
0.000070 0.000319 0.000000
0.000070 0.000329 0.000000
0.000071 0.000340 0.000000
0.000070 0.000350 0.000000
0.000071 0.000359 0.000000
0.000068 0.000373 0.000000
0.000082 0.000377 0.000000
0.000071 0.000389 0.000000
0.000072 0.000400 0.000000
0.000068 0.000411 0.000000
0.000074 0.000421 0.000000
0.000068 0.000429 0.000000
0.000075 0.000438 0.000000
0.000067 0.000451 0.000000
0.000077 0.000458 0.000000
0.000073 0.000470 0.000000
0.000076 0.000486 0.000000
0.000068 0.000495 0.000000
0.000076 0.000496 0.000000
0.000859 0.000893 0.000000
0.001071 0.001081 0.000000
0.001091 0.001069 0.000000
0.001109 0.001041 0.000000
0.001126 0.001062 0.000000
0.001141 0.001043 0.000000
0.001151 0.001041 0.000000
0.001144 0.001032 0.000000
0.001164 0.001031 0.000000
0.001172 0.001023 0.000000
0.000080 0.000300 0.000000
0.000080 0.000310 0.000000
0.000080 0.000321 0.000000
0.000080 0.000331 0.000000
0.000080 0.000340 0.000000
0.000081 0.000350 0.000000
0.000082 0.000362 0.000000
0.000075 0.000369 0.000000
0.000074 0.000383 0.000000
0.000080 0.000392 0.000000
0.000090 0.000397 0.000000
0.000079 0.000410 0.000000
0.000085 0.000417 0.000000
0.000079 0.000432 0.000000
0.000086 0.000445 0.000000
0.000077 0.000448 0.000000
0.000085 0.000464 0.000000
0.000074 0.000470 0.000000
0.000087 0.000473 0.000000
0.000085 0.000482 0.000000
0.000083 0.000495 0.000000
0.001061 0.001092 0.000000
0.001032 0.001087 0.000000
0.001094 0.001049 0.000000
0.001104 0.001056 0.000000
0.001118 0.001046 0.000000
0.001124 0.001035 0.000000
0.001134 0.001034 0.000000
0.001154 0.001029 0.000000
0.001161 0.001022 0.000000
0.001168 0.001014 0.000000
0.000090 0.000300 0.000000
0.000090 0.000310 0.000000
0.000090 0.000319 0.000000
0.000090 0.000329 0.000000
0.000091 0.000341 0.000000
0.000089 0.000349 0.000000
0.000092 0.000361 0.000000
0.000088 0.000368 0.000000
0.000093 0.000379 0.000000
0.000089 0.000387 0.000000
0.000084 0.000404 0.000000
0.000093 0.000410 0.000000
0.000087 0.000425 0.000000
0.000096 0.000426 0.000000
0.000090 0.000435 0.000000
0.000098 0.000456 0.000000
0.000088 0.000453 0.000000
0.000099 0.000472 0.000000
0.000105 0.000480 0.000000
0.000089 0.000495 0.000000
0.000094 0.000495 0.000000
0.000876 0.000930 0.000000
0.001065 0.001075 0.000000
0.001053 0.001082 0.000000
0.001083 0.001068 0.000000
0.001102 0.001037 0.000000
0.001128 0.001026 0.000000
0.001142 0.001024 0.000000
0.001148 0.001019 0.000000
0.001157 0.001013 0.000000
0.001164 0.001005 0.000000
0.000100 0.000300 0.000000
0.000100 0.000310 0.000000
0.000101 0.000321 0.000000
0.000099 0.000331 0.000000
0.000102 0.000338 0.000000
0.000099 0.000350 0.000000
0.000101 0.000359 0.000000
0.000100 0.000371 0.000000
0.000101 0.000381 0.000000
0.000100 0.000391 0.000000
0.000101 0.000401 0.000000
0.000102 0.000405 0.000000
0.000102 0.000418 0.000000
0.000100 0.000436 0.000000
0.000110 0.000444 0.000000
0.000095 0.000445 0.000000
0.000108 0.000461 0.000000
0.000095 0.000465 0.000000
0.000094 0.000481 0.000000
0.000106 0.000491 0.000000
0.000101 0.000494 0.000000
0.000991 0.001067 0.000000
0.001001 0.001072 0.000000
0.001026 0.001084 0.000000
0.001107 0.001048 0.000000
0.001117 0.001032 0.000000
0.001118 0.001022 0.000000
0.001138 0.001016 0.000000
0.001129 0.001012 0.000000
0.001152 0.001007 0.000000
0.001159 0.000996 0.000000
0.000110 0.000300 0.000000
0.000110 0.000310 0.000000
0.000110 0.000319 0.000000
0.000110 0.000329 0.000000
0.000110 0.000342 0.000000
0.000111 0.000351 0.000000
0.000109 0.000360 0.000000
0.000112 0.000370 0.000000
0.000110 0.000378 0.000000
0.000112 0.000389 0.000000
0.000113 0.000400 0.000000
0.000110 0.000414 0.000000
0.000116 0.000422 0.000000
0.000106 0.000427 0.000000
0.000112 0.000432 0.000000
0.000105 0.000448 0.000000
0.000115 0.000460 0.000000
0.000110 0.000470 0.000000
0.000116 0.000480 0.000000
0.000111 0.000493 0.000000
0.000119 0.000492 0.000000
0.000937 0.001023 0.000000
0.000885 0.000950 0.000000
0.001058 0.001070 0.000000
0.001079 0.001058 0.000000
0.001068 0.001055 0.000000
[...]
POINT_DATA 6231
SCALARS density float 1
LOOKUP_TABLE default
4415.995537
4426.986983
4423.157871
4424.910728
4425.039786
4422.991092
4424.711314
4425.709187
4427.867252
4428.974730
4427.614819
4431.050785
4427.479237
4432.032931
4432.733448
4439.041502
4423.205823
4432.249777
4414.051646
4424.270040
4410.983550
4422.488921
4425.865126
4431.669582
4438.249839
4420.561604
4397.405705
4428.720380
4449.226521
4450.221646
4417.226206
4416.803853
4422.624097
4427.694084
4428.813560
4425.733472
4428.636081
4428.697680
4430.329795
4429.195243
4433.353050
4426.626860
4431.404446
4423.856943
4434.606547
4416.681168
4430.190681
4410.406874
4441.888488
4462.060464
4459.949584
4416.104913
4408.325989
4418.142304
4436.897613
4512.034568
4395.641342
4406.219668
4424.316170
4399.719285
4450.764876
4438.567973
4420.309275
4433.447960
4427.608507
4420.308812
4428.556593
4430.070729
4422.496835
4431.387865
4417.301897
4428.117245
4424.639155
4435.645458
4425.003694
4441.542620
4411.307956
4474.447860
4400.460735
4455.350380
4350.602452
4451.395976
4421.622835
4427.299233
4439.429693
4416.695981
4503.099875
4323.825309
4361.223312
4413.092232
4427.602845
4424.244675
4403.498105
4429.875655
4428.610923
4422.119961
4436.908503
4435.330831
4428.081793
4427.257206
4437.375170
4430.288209
4442.735146
4415.617659
4434.786886
4409.144536
4446.811744
4407.843780
4431.350710
4390.545218
4448.877570
4377.739014
4548.785215
4372.983068
4432.565975
4472.012376
4441.216738
4472.796621
4349.635386
4483.521577
4454.959505
4416.035953
4476.858214
4432.254025
4431.635592
4426.043017
4436.657436
4436.428045
4418.019870
4438.663656
4434.296823
4428.900215
4414.666229
4431.307327
4408.126531
4454.385880
4416.499182
4440.739968
4414.893206
4444.746219
4392.351792
4508.814038
4311.889579
4419.067396
4384.912197
4428.929212
4393.234484
4432.691129
4436.132246
4501.002722
4435.407193
4402.801380
4489.163779
4444.627666
4416.702283
4428.936370
4432.047929
4428.303192
4425.708836
4442.862160
4437.816452
4412.698416
4446.139469
4431.060680
4440.257512
4431.345182
4427.164896
4403.429897
4451.165189
4375.026458
4483.868911
4356.096336
4473.603362
4361.700323
4538.581980
4381.576189
4438.826492
4429.883594
4462.832984
4443.916438
4448.430961
4441.647614
4402.078108
4410.273439
4414.072579
4420.501262
4429.358441
4439.812042
4421.935792
4440.741172
4424.382849
4429.949005
4437.069254
4430.577462
4406.972410
4428.185638
4427.427520
4441.189133
4424.857790
4441.520062
4409.976962
4462.238546
4407.863042
4515.964337
4376.736342
4479.655522
4431.783880
4415.478681
4395.331916
4405.196519
4426.136266
4451.462139
4425.391830
4419.767511
4405.172584
4412.744848
4433.420793
4431.416658
4426.063632
4426.367965
4433.633247
4416.348738
4437.326952
4420.861388
4410.972386
4388.277607
4455.468522
4386.754614
4434.414167
4405.718460
4436.036441
4443.755937
4462.613295
4434.888917
4449.437741
4449.633623
4412.866215
4387.241168
4434.893500
4460.422222
4434.599839
4414.864634
4390.727275
4427.559715
4452.418432
4438.031064
4438.116069
4414.739734
4429.382530
4425.904328
4436.889268
4403.720593
4433.000601
4427.781078
4425.261044
4457.651402
4443.692512
4427.851292
4428.365423
4438.680745
4432.662617
4433.407893
4455.478895
4391.683779
4460.047484
4447.862212
4354.614757
4471.406467
4410.160937
4429.676449
4415.718385
4436.201355
4433.357301
4393.353102
4448.811756
4433.858361
4403.909883
4436.621734
4437.473253
4432.645336
4425.259463
4433.126463
4417.189543
4433.241568
4428.607103
4427.711477
4441.915222
4453.383750
4430.308237
4440.630936
4390.183666
4428.039756
4452.185582
4410.408275
4366.566925
4427.523750
4402.647464
4440.125126
4423.205233
4412.096497
4426.385845
4419.247948
4436.871784
4488.070321
4396.269082
4384.706029
4435.837454
4441.317295
4430.200028
4412.600949
4431.897516
4427.832250
4422.749674
4448.841359
4425.953099
4414.564945
4445.519029
4400.214457
4448.161624
4401.553094
4446.680065
4448.828099
4420.070850
4392.008823
4452.764499
4465.615631
4424.685222
4485.516991
4427.576945
4431.677948
4417.914105
4426.414560
4434.375848
4426.627692
4453.593697
4465.342415
4380.617747
4408.261459
4469.956204
4451.878143
4424.023317
4422.958618
4437.317586
4442.619043
4407.388546
4437.573499
4421.446975
4436.222107
4439.933970
4416.860700
4438.195627
4403.211736
4439.743806
4400.412808
4461.043255
4412.391489
4434.524129
4467.598370
4423.414666
4456.403169
4400.506709
4409.596622
4437.736784
4438.074044
4414.594453
4382.279517
4403.074581
4452.703349
4459.188895
4407.294543
4423.751949
4452.946023
4431.801925
4427.417709
4423.444510
4436.876376
4442.643996
4418.705957
4413.960991
4441.084246
4394.783487
4464.371563
4414.024176
4416.699671
4461.985979
4454.846070
4415.031722
4377.851382
4441.702631
4378.226330
4430.819614
4439.629055
4388.970017
4440.837267
4414.244297
4428.424736
4455.524326
4440.780636
4418.787304
4346.093869
4459.819831
4387.540058
4418.198227
4438.689933
4436.586311
4426.260885
4437.797580
4406.169926
4455.156635
4438.272909
4412.397723
4451.275602
4415.074396
4422.827619
4393.105544
4423.391343
4438.329335
4407.997883
4446.578014
4404.934008
4460.118191
4492.486748
4420.412695
4438.891914
4435.661142
4421.069444
4423.379944
4418.486959
4436.580856
4461.041406
4462.916399
4465.778253
4496.794391
4454.055619
4433.596857
4436.424745
4425.382575
4430.535863
4440.048129
4421.558903
4416.925789
4419.298409
4440.130953
4399.532651
4451.710057
4420.945098
4451.282805
4412.105059
4450.260751
4370.180473
4429.968937
4494.171082
4575.557128
4384.997167
4377.071781
4425.206402
4420.250573
4447.611560
4454.451275
4401.517014
4442.457263
4425.468012
4405.451024
4404.051283
4447.998775
4429.547261
4429.133742
4441.890689
4418.530078
4431.995612
4401.789209
4442.500864
4453.879104
4411.704565
4414.077075
4444.713606
4419.302409
4449.753163
4404.135907
4453.803790
4422.370222
4517.035986
4345.208742
4324.841095
4457.660720
4393.369845
4416.104565
4430.698962
4435.111633
4482.177765
4445.281983
4441.461924
4433.937469
4400.290413
4423.729439
4412.489482
4434.327034
4424.333455
4436.343857
4415.200568
4444.231870
4441.781144
4408.422436
4387.676370
4443.446587
4449.933433
4426.547292
4424.281730
4423.201015
4423.133891
4435.183941
4428.765623
4406.934894
4482.019114
4470.740536
4421.751561
4407.129285
4428.623050
4449.944034
4403.933186
4371.767563
4461.997647
4461.929404
4420.470698
4406.155862
4432.177014
4429.195248
4439.459572
4419.992340
4438.440982
4438.433281
4424.136430
4412.670013
4436.978310
4451.004969
4421.354352
4391.063461
4442.576587
4407.556986
4419.645437
4458.429197
4394.377373
4437.159355
4400.097889
4469.713224
4381.234036
4399.081565
4419.997713
4421.198862
4439.323687
4440.011341
4400.836717
4467.719199
4444.972276
4399.318787
4466.840697
4429.643133
4438.940451
4428.881360
4426.489099
4434.982153
4419.668882
4438.460724
4433.089425
4419.537590
4390.049794
4446.878608
4445.824198
4433.695185
4457.304628
4436.891038
4421.167981
4428.951430
4442.091756
4383.164811
4435.987733
4423.581555
4437.231186
4387.382487
4423.234098
4434.612289
4438.794634
4444.715070
4412.108553
4476.687465
4480.415877
4413.118108
4418.366437
4420.484120
4424.630188
4427.191543
4432.204962
4409.648460
4446.243903
4406.185053
4450.160994
4450.390547
4427.812973
4393.767250
4425.579340
4400.172327
4440.071001
4436.732693
4408.162525
4446.170778
4373.573679
4467.656967
4420.856974
4554.921616
4376.841457
4466.481817
4419.467896
4437.090340
4446.207230
4379.167719
4463.674729
4387.922492
4413.262709
4410.246850
4420.503540
4433.029447
4430.273163
4428.778286
4436.274402
4417.706304
4446.370326
4419.716957
4395.097935
4416.028708
4424.397014
4455.101016
4441.170570
4421.586358
4426.335653
4443.649841
4438.063948
4471.802785
4484.121618
4396.952263
4384.534732
4434.500787
4415.100245
4428.821866
4461.712057
4435.162974
4410.136667
4432.465447
4452.326966
4456.298465
4422.172474
4410.767073
4432.744673
4428.058554
4422.970830
4437.977607
4417.892134
4442.477731
4407.396056
4445.024580
4436.295583
4398.327920
4424.765481
4414.250351
4460.869323
4436.283795
4400.560077
4466.857721
4430.843664
4406.246367
4392.296238
4457.979448
4416.831011
4449.353033
4419.233825
4428.908353
4429.075798
4391.224147
4372.041641
4449.012619
4356.757754
4429.293088
4442.933561
4424.531977
4438.878679
4431.805766
4429.900711
4428.663896
4410.001477
4432.225935
4417.876433
4399.326794
4459.859156
4395.877319
4445.396569
4463.486766
4405.208794
4382.255237
4458.172163
4417.247723
4412.796114
4443.410561
4452.037738
4428.572329
4424.104681
4422.834768
4464.813927
4412.703629
4436.149701
4479.520235
4342.301785
4486.048523
4385.436756
4418.854685
4432.619109
4429.820836
4423.765062
4425.084108
4435.729501
4435.981292
4426.493072
4425.071250
4399.297783
4442.847204
4404.598185
4445.654724
4402.302775
4426.389907
4426.431833
4426.445058
4405.101315
4455.867426
4402.593908
4429.560396
4425.168085
4414.425764
4445.106945
4417.175057
4447.819210
4466.363278
4423.484493
4395.511576
4448.165252
4437.667153
4444.010482
4428.317401
4425.609201
4434.875382
4441.379724
4409.859880
4434.326146
4399.467862
4448.089110
4436.109103
4411.562406
4448.472813
4421.497869
4440.793509
4448.513935
4385.859842
4460.225034
4404.173983
4454.168714
4431.624110
4470.624900
4415.912961
4421.780292
4452.733654
4420.906632
4438.245221
4454.520906
4425.959063
4463.457937
4425.806511
4421.368885
4433.778320
4432.252258
4441.973387
4415.844949
4436.235662
4423.807022
4437.895875
4440.098737
4411.312157
4428.278830
4421.520210
4451.310229
4456.153621
4442.341173
4422.044166
4439.423731
4448.818561
4392.335551
4451.058796
4367.378508
4429.068907
4429.503753
4415.056991
4454.420901
4433.038852
4440.706330
4389.604628
4447.803550
4424.642666
4443.109976
4409.299155
4419.035223
4424.535917
4439.219196
4410.317521
4440.695473
4430.534008
4414.361823
4423.931922
4445.629088
4419.179372
4450.398768
4384.388769
4468.129917
4386.494994
4404.855801
4392.661015
4446.399266
4430.419286
4461.368865
4420.602520
4435.174516
4427.815938
4432.296697
4424.687881
4388.130106
4414.717035
4436.792229
4418.637679
4410.712685
4474.879929
4410.005472
4442.690053
4422.211206
4433.808570
4438.572437
4427.149436
4419.476594
4460.625852
4410.326697
4432.208528
4403.589432
4443.697559
4414.226151
4410.601755
4412.042242
4446.959642
4429.997812
4463.429609
4401.629790
4465.372504
4416.784098
4441.850273
4412.231940
4425.500819
4432.193942
4429.037581
4410.912620
4427.362479
4413.947602
4449.543738
4414.188573
4398.351699
4432.483103
4435.361842
4428.683398
4417.302488
4444.107358
4420.235947
4432.915590
4416.497192
4443.132790
4414.663011
4422.207150
4426.398026
4448.667644
4437.814577
4441.063271
4391.755307
4450.358446
4390.775960
4456.745002
4420.565979
4432.276822
4408.727702
4430.725175
4417.392045
4431.462952
4474.980569
4400.345997
4411.475364
4440.662646
4413.414841
4438.763886
4407.034781
4429.549743
4429.278711
4428.380603
4442.663405
4426.132479
4420.893636
4434.490975
4420.109841
4434.483945
4441.910144
4411.208735
4439.925618
4416.631131
4427.552382
4415.370234
4443.360187
4406.708541
4379.081971
4390.383639
4463.113052
4434.997864
4411.993724
4419.170943
4410.622107
4451.943183
4437.363865
4405.042108
4466.914245
4422.511527
4424.626406
4446.554832
4430.395058
4431.692145
4432.674912
4403.580702
4446.915357
4427.954184
4427.835325
4442.048351
4403.513631
4434.236728
4444.789016
4416.894033
4437.272814
4455.643337
4418.144775
4404.289283
4418.733827
4483.601192
4456.831121
4436.082108
4440.073948
4438.049270
4438.402731
4421.500853
4423.263977
4421.279971
4439.978181
4424.450464
4432.996001
4417.987841
4433.214538
4432.670729
4426.988406
4434.754944
4445.434106
4426.584158
4424.079343
4416.546187
4445.063174
4435.796591
4427.634657
4420.017468
4435.092058
4441.392741
4403.536729
4437.133119
4457.074049
4393.838698
4447.396322
4391.924635
4390.582340
4427.608801
4436.848841
4427.040518
4393.520430
4465.973612
4396.574609
4428.583443
4411.833842
4463.780469
4352.507675
4416.090810
4431.630740
4435.900340
4418.218778
4431.139487
4413.779602
4457.430377
4441.537502
4407.058463
4411.461539
4435.566400
4438.389160
4415.086331
4423.471999
4456.092304
4437.087332
4422.892298
4399.336384
4395.522467
4464.426108
4457.326779
4442.589632
4403.602477
4398.254329
4424.705741
4442.782985
4443.628343
4376.737687
4464.670731
4428.374072
4462.736549
4417.389624
4429.708648
4440.540475
4427.087053
4432.024557
4442.987843
4406.304473
4410.095855
4448.980773
4431.285906
4425.579294
4421.391946
4451.211635
4426.989556
4421.776877
4400.646532
4435.515510
4467.052794
4453.805533
4329.106197
4471.834554
4462.160357
4432.818178
4480.205027
4426.682015
4443.143414
4461.001162
4438.082846
4407.603903
4407.216923
4403.788378
4437.405685
4431.996257
4428.723986
4421.315873
4417.525991
4428.872435
4449.063766
4426.172337
4414.648287
4404.012504
4451.744635
4402.605698
4433.615585
4414.558295
4448.374375
4403.152021
4447.788257
4372.818897
4448.194038
4321.634144
4497.951524
4437.519688
4419.015912
4422.575348
4489.259758
4417.380226
4445.965365
4402.442503
4472.343578
4365.896094
4432.736122
4449.406611
4430.303548
4429.007095
4434.913899
4441.917453
4409.329522
4421.904282
4427.696661
4452.681932
4437.938617
4403.057238
4431.487275
4433.519768
4401.148267
4460.068916
4387.571905
4468.692630
4387.483296
4476.028790
4464.232615
4503.993932
4418.529933
4414.021023
4381.655066
4436.567753
4404.682714
4430.905538
4458.576239
4450.248886
4449.262786
4352.776808
4454.018105
4426.581957
4437.009297
4415.019626
4426.642747
4420.929689
4426.093079
4435.051626
4399.263840
4412.169361
4443.364173
4418.650099
4443.177679
4425.017447
4411.287213
4461.626107
4422.901224
4436.914055
4432.411551
4432.603887
4507.340250
4445.293287
4426.078688
4441.428574
4416.856437
4397.764263
4448.912850
4408.187308
4437.644303
4441.850689
4444.181276
4412.219079
4424.301281
4431.911734
4431.030550
4431.351550
4434.223648
4448.239475
4445.832892
4436.238787
4416.393234
4409.024411
4452.548460
4448.794186
4409.993714
4394.605252
4415.296785
4402.417862
4449.971201
4400.957366
4395.886043
4426.649387
4392.310072
4418.128077
4420.296309
4432.668788
4399.691721
4449.405897
4371.889889
4392.326736
4481.880686
4473.921262
4410.525269
4427.610830
4429.636217
4419.995782
4424.446972
4420.399140
4412.378141
4393.751029
4432.662197
4418.000582
4412.046814
4461.954050
4419.882494
4435.510974
4443.267773
4437.726598
4465.746464
4387.722738
4444.893466
4434.192059
4449.791876
4429.989569
4460.235985
4419.210987
4440.930842
4445.786461
4474.987409
4465.897358
4442.858100
4381.186407
4419.469570
4400.079953
4431.016450
4426.921016
4438.425346
4428.582176
4403.136156
4421.275331
4452.090747
4454.080542
4441.885061
4427.323470
4445.339364
4417.625420
4416.822750
4422.147054
4423.183610
4435.521203
4442.404457
4417.225889
4447.090399
4433.805541
4428.831467
4416.109974
4427.328489
4411.988564
4428.711117
4457.533839
4416.249185
4487.121546
4381.264874
4449.099917
4428.278325
4427.235039
4433.843515
4414.251167
4442.020435
4442.045770
4412.816066
4428.582736
4428.229656
4436.988120
4416.853425
4407.405876
4463.520779
4413.598022
4427.913505
4414.734349
4441.838710
4406.573776
4410.888432
4423.223076
4441.171550
4433.865534
4403.204694
4474.820630
4437.968373
4450.586612
4430.085539
4451.149846
4440.292539
4347.349021
4393.655481
4406.779380
4416.491778
4431.867921
4429.705501
4401.399212
4441.031807
4408.859685
4414.699739
4421.626458
4431.280886
4404.206011
4408.289237
4444.432827
4412.700455
4403.536902
4431.129917
4414.077153
4463.695926
4389.458134
4427.275887
4437.897446
4424.794789
4425.091928
4437.694721
4382.496266
4435.919084
4466.468209
4438.988814
4365.615454
4455.144708
4469.683919
4416.961381
4426.625142
4428.783501
4428.107515
4455.234616
4412.671687
4443.751539
4433.378505
4442.485214
4450.065243
4392.628336
4389.494417
4453.980193
4454.309859
4436.048190
4411.541886
4448.978247
4405.267383
4420.301434
4380.934274
4427.386552
4434.184392
4431.361902
4408.853241
4447.372142
4426.361398
4412.822451
4410.731405
4387.188299
4463.768832
4411.170916
4434.538541
4432.962138
4428.124461
4415.322324
4434.849030
4410.215955
4424.703252
4423.603197
4443.659463
4441.675588
4416.642031
4398.065690
4448.436898
4423.880928
4420.903498
4396.390849
4441.886427
4403.734182
4445.516848
4469.443046
4443.226076
4439.397045
4424.286335
4446.244357
4432.577750
4472.846240
4420.846156
4458.386071
4447.394989
4467.423096
4430.769475
4403.980146
4420.110513
4440.065209
4431.097431
4420.706887
4431.181396
4449.351186
4405.747307
4429.418784
4421.318223
4434.081748
4446.293876
4433.647179
4402.780668
4410.857483
4460.425804
4399.981907
4439.555426
4409.129374
4374.387519
4472.450236
4454.437156
4436.818828
4408.157757
4422.436485
4394.572712
4454.364673
4410.693236
4404.510692
4361.374845
4405.216412
4403.969684
4435.417373
4424.691811
4426.073292
4436.305129
4411.410907
4431.930902
4438.647249
4433.342468
4419.153012
4424.746326
4433.851314
4445.522999
4422.993115
4441.054904
4468.586419
4399.993832
4384.900844
4470.807103
4401.118605
4440.614796
4416.517054
4398.251033
4436.507803
4420.348508
4438.442517
4449.570841
4455.744627
4392.435819
4414.392487
4444.604254
4444.238581
4429.083205
4426.064746
4428.069229
4440.059180
4430.591850
4434.869132
4446.701920
4417.967532
4434.615162
4444.574095
4421.205901
4435.030162
4421.309527
4436.974385
4445.727342
4417.700957
4433.915134
4467.576103
4418.915622
4333.033659
4408.655817
4427.034960
4421.354809
4427.335159
4431.412984
4475.247644
4406.746810
4432.774428
4464.046158
4386.889800
4372.958107
4423.706678
4433.019154
4432.243593
4401.307597
4437.143856
4423.438892
4415.777513
4401.073401
4425.531549
4429.883078
4417.291122
4441.692847
4440.550366
4404.696119
4458.354386
4386.803928
4422.251437
4452.361375
4379.752171
4539.274653
4388.370304
4430.160395
4412.169717
4436.643881
4448.342778
4456.524246
4433.765278
4422.222860
4478.403881
4446.734276
4428.568968
4434.565082
4428.929474
4425.243252
4439.970686
4423.731553
4434.598471
4422.505551
4449.374536
4426.739611
4420.258584
4402.416630
4430.941941
4396.326733
4443.048166
4436.958827
4465.843057
4447.717399
4421.256215
4415.468538
4431.969137
4489.599325
4437.238371
4464.395647
4434.711798
4452.055831
4453.314064
4455.643994
4438.854825
4473.927533
4421.896746
4478.126670
4433.642075
4430.433180
4423.542192
4438.027479
4405.145933
4450.253407
4419.364800
4448.899978
4414.109639
4448.067210
4423.194490
4426.688477
4422.812326
4443.317435
4379.829824
4454.078912
4387.805333
4414.602358
4433.127474
4447.745895
4513.648244
4434.688805
4465.038714
4472.446331
4451.627307
4423.549091
4426.768860
4394.937202
4361.773023
4341.983565
4394.722470
4426.553538
4438.273213
4421.408113
4424.535689
4435.522486
4445.564296
4438.970349
4441.177974
4432.586749
4453.311395
4409.781142
4464.840396
4433.999604
4441.533751
4446.122944
4411.957495
4384.760804
4448.311429
4408.748844
4422.920928
4446.855357
4423.605406
4417.803035
4428.976762
4464.171883
4410.182875
4362.876376
4434.029586
4475.037696
4408.187335
4449.686894
4430.330977
4422.378313
4425.903985
4429.052697
4430.438118
4399.476913
4407.235500
4410.984055
4460.040895
4423.114972
4413.884857
4436.123184
4418.553969
4418.758373
4417.293661
4450.684040
4442.726282
4447.782722
4392.147557
4415.260244
4423.639927
4429.478034
4384.510953
4447.193410
4392.619068
4405.314249
4441.710025
4450.277756
4476.801525
4389.462118
4423.156460
4430.354894
4420.261993
4430.773968
4443.718224
4449.543841
4439.230735
4429.650456
4438.124934
4389.863382
4435.539556
4390.533702
4439.141808
4439.859529
4438.413259
4442.682568
4418.058355
4417.778564
4457.184100
4475.850572
4378.494130
4419.228572
4421.797596
4432.081196
4413.747341
4398.249748
4432.617201
4441.537939
4437.657843
4455.835893
4423.403456
4396.440453
4422.118572
4440.899004
4420.802470
4403.206341
4434.764547
4416.202439
4419.869848
4445.254168
4405.843539
4433.088798
4433.092965
4430.084546
4392.174389
4448.394377
4424.751049
4416.951938
4448.475121
4453.649810