# vtk DataFile Version 2.0
mfree iwf
ASCII

DATASET UNSTRUCTURED_GRID
POINTS 6231 float
0.000000 0.000300 0.000000
0.000000 0.000310 0.000000
0.000000 0.000320 0.000000
0.000000 0.000330 0.000000
0.000000 0.000340 0.000000
0.000000 0.000350 0.000000
0.000000 0.000360 0.000000
0.000001 0.000370 0.000000
0.000001 0.000380 0.000000
0.000001 0.000390 0.000000
0.000001 0.000400 0.000000
0.000001 0.000410 0.000000
0.000001 0.000420 0.000000
0.000001 0.000430 0.000000
0.000001 0.000440 0.000000
0.000001 0.000450 0.000000
0.000002 0.000460 0.000000
0.000002 0.000470 0.000000
0.000002 0.000480 0.000000
0.000001 0.000492 0.000000
0.000006 0.000501 0.000000
0.001156 0.001190 0.000000
0.001230 0.001224 0.000000
0.001173 0.001197 0.000000
0.001242 0.001229 0.000000
0.001264 0.001233 0.000000
0.001313 0.001237 0.000000
0.001322 0.001235 0.000000
0.001333 0.001229 0.000000
0.001346 0.001226 0.000000
0.001376 0.001226 0.000000
0.000010 0.000300 0.000000
0.000010 0.000310 0.000000
0.000010 0.000320 0.000000
0.000010 0.000330 0.000000
0.000010 0.000340 0.000000
0.000010 0.000350 0.000000
0.000010 0.000360 0.000000
0.000010 0.000370 0.000000
0.000011 0.000380 0.000000
0.000011 0.000390 0.000000
0.000011 0.000400 0.000000
0.000011 0.000410 0.000000
0.000011 0.000420 0.000000
0.000011 0.000430 0.000000
0.000011 0.000440 0.000000
0.000011 0.000450 0.000000
0.000012 0.000460 0.000000
0.000011 0.000472 0.000000
0.000013 0.000478 0.000000
0.000009 0.000492 0.000000
0.000013 0.000498 0.000000
0.001283 0.001229 0.000000
0.001299 0.001230 0.000000
0.001307 0.001231 0.000000
0.001312 0.001229 0.000000
0.001328 0.001221 0.000000
0.001339 0.001220 0.000000
0.001354 0.001215 0.000000
0.001364 0.001217 0.000000
0.001370 0.001214 0.000000
0.001373 0.001222 0.000000
0.000020 0.000300 0.000000
0.000020 0.000310 0.000000
0.000020 0.000320 0.000000
0.000020 0.000330 0.000000
0.000021 0.000340 0.000000
0.000020 0.000350 0.000000
0.000021 0.000360 0.000000
0.000020 0.000370 0.000000
0.000021 0.000380 0.000000
0.000021 0.000390 0.000000
0.000020 0.000400 0.000000
0.000022 0.000410 0.000000
0.000020 0.000420 0.000000
0.000022 0.000430 0.000000
0.000020 0.000439 0.000000
0.000023 0.000451 0.000000
0.000021 0.000460 0.000000
0.000022 0.000470 0.000000
0.000021 0.000481 0.000000
0.000024 0.000494 0.000000
0.000020 0.000497 0.000000
0.001250 0.001219 0.000000
0.001279 0.001225 0.000000
0.001289 0.001226 0.000000
0.001294 0.001224 0.000000
0.001304 0.001216 0.000000
0.001319 0.001220 0.000000
0.001345 0.001213 0.000000
0.001360 0.001212 0.000000
0.001366 0.001203 0.000000
0.001374 0.001200 0.000000
0.000030 0.000300 0.000000
0.000030 0.000310 0.000000
0.000030 0.000320 0.000000
0.000031 0.000330 0.000000
0.000030 0.000340 0.000000
0.000031 0.000350 0.000000
0.000030 0.000360 0.000000
0.000031 0.000370 0.000000
0.000031 0.000380 0.000000
0.000031 0.000390 0.000000
0.000031 0.000400 0.000000
0.000031 0.000410 0.000000
0.000031 0.000419 0.000000
0.000031 0.000430 0.000000
0.000031 0.000440 0.000000
0.000030 0.000450 0.000000
0.000031 0.000459 0.000000
0.000036 0.000473 0.000000
0.000029 0.000478 0.000000
0.000032 0.000488 0.000000
0.000032 0.000497 0.000000
0.000063 0.000500 0.000000
0.001271 0.001220 0.000000
0.001288 0.001211 0.000000
0.001313 0.001210 0.000000
0.001323 0.001202 0.000000
0.001329 0.001214 0.000000
0.001332 0.001207 0.000000
0.001344 0.001204 0.000000
0.001350 0.001201 0.000000
0.001372 0.001192 0.000000
0.000040 0.000300 0.000000
0.000040 0.000310 0.000000
0.000040 0.000320 0.000000
0.000040 0.000330 0.000000
0.000040 0.000341 0.000000
0.000041 0.000350 0.000000
0.000040 0.000360 0.000000
0.000041 0.000370 0.000000
0.000040 0.000380 0.000000
0.000041 0.000390 0.000000
0.000041 0.000399 0.000000
0.000041 0.000410 0.000000
0.000042 0.000420 0.000000
0.000040 0.000430 0.000000
0.000042 0.000439 0.000000
0.000043 0.000450 0.000000
0.000043 0.000460 0.000000
0.000037 0.000469 0.000000
0.000045 0.000477 0.000000
0.000043 0.000496 0.000000
0.000040 0.000498 0.000000
0.001052 0.001051 0.000000
0.001278 0.001211 0.000000
0.001296 0.001210 0.000000
0.001301 0.001204 0.000000
0.001313 0.001211 0.000000
0.001333 0.001198 0.000000
0.001354 0.001192 0.000000
0.001352 0.001182 0.000000
0.001362 0.001195 0.000000
0.001370 0.001183 0.000000
0.000050 0.000300 0.000000
0.000050 0.000310 0.000000
0.000050 0.000320 0.000000
0.000049 0.000330 0.000000
0.000052 0.000339 0.000000
0.000050 0.000349 0.000000
0.000051 0.000360 0.000000
0.000049 0.000371 0.000000
0.000052 0.000379 0.000000
0.000050 0.000390 0.000000
0.000052 0.000400 0.000000
0.000048 0.000410 0.000000
0.000053 0.000419 0.000000
0.000051 0.000430 0.000000
0.000053 0.000440 0.000000
0.000047 0.000451 0.000000
0.000054 0.000458 0.000000
0.000052 0.000469 0.000000
0.000055 0.000483 0.000000
0.000048 0.000488 0.000000
0.000050 0.000498 0.000000
0.001269 0.001227 0.000000
0.001224 0.001215 0.000000
0.001290 0.001202 0.000000
0.001299 0.001189 0.000000
0.001317 0.001191 0.000000
0.001335 0.001191 0.000000
0.001327 0.001187 0.000000
0.001345 0.001190 0.000000
0.001359 0.001182 0.000000
0.001365 0.001172 0.000000
0.000060 0.000300 0.000000
0.000060 0.000310 0.000000
0.000060 0.000320 0.000000
0.000060 0.000331 0.000000
0.000061 0.000340 0.000000
0.000059 0.000350 0.000000
0.000062 0.000359 0.000000
0.000060 0.000368 0.000000
0.000062 0.000381 0.000000
0.000059 0.000390 0.000000
0.000063 0.000399 0.000000
0.000060 0.000410 0.000000
0.000064 0.000419 0.000000
0.000058 0.000430 0.000000
0.000065 0.000439 0.000000
0.000061 0.000449 0.000000
0.000065 0.000460 0.000000
0.000055 0.000471 0.000000
0.000064 0.000475 0.000000
0.000068 0.000485 0.000000
0.000058 0.000496 0.000000
0.001258 0.001226 0.000000
0.001268 0.001210 0.000000
0.001284 0.001193 0.000000
0.001305 0.001195 0.000000
0.001315 0.001183 0.000000
0.001315 0.001175 0.000000
0.001345 0.001174 0.000000
0.001336 0.001181 0.000000
0.001355 0.001172 0.000000
0.001362 0.001164 0.000000
0.000070 0.000300 0.000000
0.000070 0.000310 0.000000
0.000070 0.000319 0.000000
0.000070 0.000329 0.000000
0.000071 0.000340 0.000000
0.000070 0.000350 0.000000
0.000072 0.000359 0.000000
0.000067 0.000372 0.000000
0.000082 0.000376 0.000000
0.000070 0.000390 0.000000
0.000073 0.000400 0.000000
0.000068 0.000410 0.000000
0.000074 0.000420 0.000000
0.000068 0.000429 0.000000
0.000076 0.000438 0.000000
0.000066 0.000452 0.000000
0.000078 0.000458 0.000000
0.000072 0.000470 0.000000
0.000076 0.000486 0.000000
0.000068 0.000495 0.000000
0.000076 0.000496 0.000000
0.001043 0.001030 0.000000
0.001258 0.001214 0.000000
0.001279 0.001203 0.000000
0.001297 0.001173 0.000000
0.001315 0.001197 0.000000
0.001327 0.001175 0.000000
0.001338 0.001172 0.000000
0.001330 0.001164 0.000000
0.001351 0.001163 0.000000
0.001359 0.001154 0.000000
0.000080 0.000300 0.000000
0.000080 0.000310 0.000000
0.000081 0.000321 0.000000
0.000079 0.000331 0.000000
0.000081 0.000340 0.000000
0.000080 0.000351 0.000000
0.000082 0.000361 0.000000
0.000075 0.000370 0.000000
0.000074 0.000383 0.000000
0.000080 0.000392 0.000000
0.000090 0.000397 0.000000
0.000079 0.000411 0.000000
0.000087 0.000417 0.000000
0.000078 0.000431 0.000000
0.000086 0.000445 0.000000
0.000076 0.000448 0.000000
0.000084 0.000464 0.000000
0.000074 0.000470 0.000000
0.000088 0.000472 0.000000
0.000085 0.000482 0.000000
0.000084 0.000495 0.000000
0.001248 0.001225 0.000000
0.001219 0.001221 0.000000
0.001282 0.001182 0.000000
0.001293 0.001190 0.000000
0.001306 0.001180 0.000000
0.001311 0.001167 0.000000
0.001321 0.001166 0.000000
0.001340 0.001160 0.000000
0.001347 0.001154 0.000000
0.001355 0.001145 0.000000
0.000090 0.000300 0.000000
0.000090 0.000310 0.000000
0.000090 0.000319 0.000000
0.000090 0.000329 0.000000
0.000092 0.000339 0.000000
0.000089 0.000349 0.000000
0.000093 0.000361 0.000000
0.000087 0.000369 0.000000
0.000093 0.000379 0.000000
0.000088 0.000387 0.000000
0.000083 0.000404 0.000000
0.000093 0.000409 0.000000
0.000086 0.000425 0.000000
0.000097 0.000426 0.000000
0.000090 0.000434 0.000000
0.000097 0.000455 0.000000
0.000087 0.000453 0.000000
0.000098 0.000472 0.000000
0.000106 0.000480 0.000000
0.000089 0.000494 0.000000
0.000094 0.000495 0.000000
0.001060 0.001067 0.000000
0.001252 0.001208 0.000000
0.001241 0.001215 0.000000
0.001271 0.001201 0.000000
0.001287 0.001171 0.000000
0.001315 0.001157 0.000000
0.001328 0.001156 0.000000
0.001335 0.001150 0.000000
0.001343 0.001145 0.000000
0.001350 0.001136 0.000000
0.000100 0.000300 0.000000
0.000100 0.000310 0.000000
0.000100 0.000320 0.000000
0.000100 0.000331 0.000000
0.000101 0.000341 0.000000
0.000098 0.000350 0.000000
0.000102 0.000358 0.000000
0.000099 0.000371 0.000000
0.000102 0.000381 0.000000
0.000099 0.000391 0.000000
0.000101 0.000400 0.000000
0.000103 0.000407 0.000000
0.000100 0.000417 0.000000
0.000100 0.000437 0.000000
0.000108 0.000442 0.000000
0.000096 0.000445 0.000000
0.000107 0.000460 0.000000
0.000096 0.000465 0.000000
0.000094 0.000481 0.000000
0.000106 0.000491 0.000000
0.000101 0.000494 0.000000
0.001178 0.001201 0.000000
0.001188 0.001205 0.000000
0.001213 0.001218 0.000000
0.001294 0.001177 0.000000
0.001302 0.001164 0.000000
0.001304 0.001155 0.000000
0.001325 0.001147 0.000000
0.001316 0.001144 0.000000
0.001338 0.001139 0.000000
0.001345 0.001128 0.000000
0.000110 0.000300 0.000000
0.000110 0.000310 0.000000
0.000110 0.000320 0.000000
0.000110 0.000329 0.000000
0.000110 0.000339 0.000000
0.000111 0.000351 0.000000
0.000109 0.000361 0.000000
0.000112 0.000370 0.000000
0.000110 0.000379 0.000000
0.000110 0.000389 0.000000
0.000112 0.000398 0.000000
0.000111 0.000415 0.000000
0.000116 0.000423 0.000000
0.000105 0.000427 0.000000
0.000114 0.000432 0.000000
0.000107 0.000450 0.000000
0.000116 0.000462 0.000000
0.000110 0.000470 0.000000
0.000116 0.000480 0.000000
0.000111 0.000493 0.000000
0.000119 0.000492 0.000000
0.001124 0.001158 0.000000
0.001070 0.001086 0.000000
0.001246 0.001203 0.000000
0.001265 0.001191 0.000000
0.001255 0.001187 0.000000
[...]
POINT_DATA 6231
SCALARS density float 1
LOOKUP_TABLE default
4416.452653
4426.968908
4423.212221
4424.285531
4424.049586
4423.266725
4426.685939
4427.545496
4429.667933
4430.520508
4429.376674
4434.354692
4428.321646
4428.208017
4431.106474
4440.800564
4423.756867
4431.575147
4413.535415
4424.566655
4411.251714
4431.339278
4423.394392
4441.616466
4432.119744
4417.266712
4403.089425
4425.427592
4447.732752
4447.267993
4415.393308
4417.868539
4424.264906
4427.025807
4427.247759
4429.607260
4427.847022
4423.786380
4423.548061
4424.479718
4428.385012
4422.105103
4424.849506
4424.648939
4441.935286
4415.916398
4426.869148
4410.773451
4442.463625
4462.624358
4459.521763
4416.556969
4409.973028
4415.776635
4443.145493
4502.262773
4413.688603
4409.535020
4428.364622
4403.996725
4451.223800
4438.404683
4420.364691
4432.695825
4426.322995
4423.495235
4425.286672
4425.995488
4429.954642
4438.925753
4424.005628
4433.531397
4428.749504
4442.823441
4418.580510
4435.847321
4415.284826
4475.916932
4400.984506
4455.194700
4351.551344
4450.409004
4421.607520
4429.318680
4434.710396
4420.340070
4490.732529
4342.765326
4347.587883
4410.818606
4419.755685
4426.374622
4405.652734
4428.413116
4430.849114
4423.167287
4437.516102
4435.071554
4431.962224
4424.875481
4424.642497
4422.871934
4437.945719
4409.351349
4433.431350
4417.190322
4447.439726
4405.494596
4430.299186
4387.331826
4453.263772
4371.287952
4552.346005
4372.692312
4435.136576
4466.151888
4437.840050
4472.444187
4338.856361
4472.507144
4452.209459
4418.808527
4480.251009
4427.617154
4434.196812
4428.562135
4434.089043
4436.578700
4417.225523
4440.871002
4428.766634
4442.958813
4426.258979
4434.143917
4419.096255
4447.146005
4409.359912
4446.183648
4414.158795
4450.492963
4389.680908
4512.742219
4310.823156
4418.743670
4384.613998
4431.407326
4407.627575
4427.055403
4417.767424
4496.161833
4448.123539
4404.679940
4484.497038
4445.457975
4413.321599
4431.083971
4430.348262
4429.269800
4431.646550
4438.098513
4440.164003
4412.127247
4442.762419
4407.325804
4438.489278
4415.977420
4442.003461
4403.749096
4445.863267
4375.733392
4476.936830
4363.507671
4472.515102
4363.563215
4537.042558
4382.483104
4432.451396
4423.132264
4460.511370
4459.748765
4467.486534
4459.724974
4399.990055
4388.121487
4425.046771
4420.086575
4426.836247
4440.266248
4425.818598
4435.916421
4430.510058
4429.615016
4430.974362
4439.698694
4418.666795
4447.486644
4423.206631
4440.409327
4419.438685
4448.023990
4404.770599
4469.210054
4398.510165
4513.386848
4379.231303
4468.297197
4433.215153
4412.668366
4384.761396
4389.369011
4395.121937
4431.828358
4439.047631
4422.756798
4412.343684
4413.762891
4439.121418
4432.643906
4432.299454
4422.324549
4437.016230
4412.900231
4441.734359
4423.253332
4422.931951
4422.702627
4444.231800
4400.422866
4438.276513
4412.715594
4434.447116
4444.230355
4459.499235
4429.367612
4454.521502
4451.946898
4414.409030
4389.903971
4434.332209
4466.369542
4442.185532
4431.199141
4426.546177
4402.214040
4450.651960
4444.617124
4429.301424
4418.719539
4431.448605
4424.463615
4429.434037
4427.163723
4412.544534
4442.369368
4425.581127
4435.380436
4422.776089
4446.239601
4421.155386
4428.569068
4421.757518
4438.598536
4448.514045
4400.838911
4459.107178
4447.746163
4369.194018
4462.607575
4412.181878
4424.988160
4414.090905
4428.464344
4436.745484
4391.512144
4449.398807
4442.779467
4399.279670
4445.265876
4432.789906
4424.578975
4435.799635
4432.919502
4413.691188
4440.390213
4427.995009
4408.597306
4447.289582
4421.875083
4419.515411
4436.966205
4418.131887
4427.164975
4456.207799
4411.387277
4389.559974
4427.589611
4414.887466
4434.523688
4424.931060
4412.325105
4428.784899
4413.929172
4439.280342
4477.632548
4408.949020
4381.591360
4436.117288
4436.066534
4436.411230
4411.594374
4430.554341
4433.814448
4413.925207
4443.081668
4427.063002
4422.048545
4451.799498
4413.821992
4450.802734
4419.602901
4440.040910
4436.692057
4411.670589
4406.444217
4445.822077
4457.617853
4425.983212
4463.132209
4428.100647
4428.625773
4415.426949
4427.312040
4431.464871
4428.286938
4442.073751
4444.631625
4419.511860
4411.687583
4472.282079
4448.238312
4425.884225
4429.957910
4432.378842
4433.072501
4435.999794
4419.839156
4417.681418
4438.573190
4417.506547
4426.377369
4426.426424
4408.719552
4439.817862
4412.245402
4444.252996
4418.744794
4425.457005
4474.757392
4404.026718
4456.775401
4408.447367
4413.061813
4439.105811
4439.976675
4398.672293
4390.159953
4394.473546
4443.776071
4442.349795
4414.847320
4422.539536
4451.864355
4430.155036
4426.517565
4428.915166
4414.176364
4440.009111
4447.163620
4406.776384
4447.390138
4410.522659
4443.973080
4432.278144
4421.740643
4430.457431
4459.496561
4413.454358
4403.095156
4413.339480
4383.886127
4432.551767
4435.521581
4390.936952
4434.031440
4417.812958
4425.993031
4457.269335
4451.944185
4407.752608
4353.185555
4457.917973
4388.197877
4419.792474
4437.479173
4429.197365
4431.897855
4442.427471
4420.623664
4411.160947
4428.262885
4439.287628
4415.380378
4418.300089
4418.565431
4413.823011
4445.932734
4419.366238
4395.960413
4474.419255
4410.714613
4466.601751
4489.338834
4417.129977
4440.485706
4432.737231
4422.893084
4423.268549
4422.207731
4438.741879
4443.011046
4459.075484
4466.531367
4489.351414
4452.985985
4433.315834
4433.577222
4431.496746
4415.611329
4435.779952
4435.769199
4441.686120
4403.912079
4447.549550
4411.606281
4425.002141
4448.497084
4461.577371
4436.893626
4428.910874
4362.023150
4413.869653
4483.935467
4569.654770
4389.173467
4379.305599
4425.473529
4422.420959
4433.707973
4449.608308
4414.664592
4455.996765
4429.628024
4405.122019
4408.601366
4444.653667
4428.214985
4436.344213
4433.096648
4423.072647
4438.227018
4394.624095
4434.096735
4429.693392
4390.318392
4430.126495
4450.456727
4428.882519
4402.398767
4405.830089
4447.898480
4430.848057
4520.459463
4344.956492
4325.906960
4459.507819
4393.282799
4425.722734
4428.625817
4454.338581
4475.638322
4442.387112
4444.021849
4433.186063
4389.210563
4422.609501
4414.533281
4432.778943
4432.195462
4425.558183
4426.457587
4432.370823
4450.406512
4420.774294
4430.912629
4460.028164
4443.055217
4444.494715
4417.880825
4472.314774
4397.273634
4437.353031
4437.156324
4403.240008
4487.573334
4467.809127
4421.431836
4406.352947
4423.288387
4408.405727
4468.221187
4370.606020
4457.829272
4473.106496
4428.030345
4405.671527
4430.037723
4430.974675
4438.704973
4426.040967
4432.706139
4449.484386
4406.113836
4439.921993
4388.608490
4440.226734
4447.457831
4397.940983
4417.373725
4430.365000
4419.233270
4460.352056
4419.072725
4432.324984
4397.835620
4468.624259
4381.968687
4391.828856
4419.279010
4426.605392
4431.217841
4440.432539
4393.838669
4464.495283
4429.687518
4395.373808
4458.751852
4426.840997
4436.531325
4424.777612
4429.455468
4421.216322
4436.953593
4431.239961
4425.011607
4455.079082
4418.263675
4413.277524
4431.052741
4433.772840
4463.443833
4437.607953
4436.200900
4409.508900
4450.545787
4391.317192
4434.672371
4423.943199
4437.131677
4385.524723
4424.707405
4429.336323
4413.532128
4454.077561
4421.642210
4468.402122
4469.335933
4414.733708
4426.033712
4422.731172
4418.178925
4438.578894
4429.182070
4406.880495
4446.059692
4395.061777
4447.921147
4400.860867
4444.831104
4433.929973
4413.966588
4403.187842
4441.321288
4412.711540
4406.560019
4449.586795
4369.078352
4464.858816
4424.470046
4556.064904
4376.356502
4470.233204
4417.779221
4410.694895
4434.360515
4387.329722
4461.192519
4402.038482
4412.633438
4428.441310
4422.094061
4431.288782
4425.154709
4422.774863
4433.425444
4416.046586
4444.217984
4421.758518
4439.688147
4397.549610
4426.788566
4461.147137
4417.173386
4446.571878
4428.051624
4449.822724
4438.473093
4474.532906
4474.859608
4388.679129
4384.148089
4435.214556
4418.729679
4433.475785
4465.236787
4441.414560
4398.693157
4424.159886
4453.167139
4466.497716
4424.623251
4414.105275
4433.062663
4422.653100
4430.211272
4439.914952
4400.226209
4451.906684
4384.547669
4423.790299
4424.140889
4397.170334
4421.485243
4405.656411
4458.200271
4424.588928
4395.194448
4460.164966
4427.717072
4405.375676
4394.543267
4458.332017
4415.620453
4448.639750
4419.130830
4425.275387
4439.604945
4399.606122
4388.862717
4455.365696
4358.807337
4420.703333
4441.679486
4421.571437
4438.757581
4421.355855
4422.078703
4437.998079
4416.244196
4455.166171
4409.553449
4433.174328
4440.600437
4403.231318
4436.606561
4452.920371
4428.846794
4392.695109
4454.844566
4419.320442
4412.369805
4449.404779
4451.055579
4426.491381
4424.335048
4415.006864
4459.759505
4402.428782
4433.199259
4470.649394
4341.699504
4488.317366
4392.035761
4424.656059
4422.059378
4432.293773
4422.103503
4422.338649
4437.589541
4402.769594
4432.507261
4424.203452
4401.801320
4440.113849
4419.114742
4442.301334
4386.380115
4424.702107
4426.004886
4430.426836
4414.306231
4451.345559
4403.818415
4428.391207
4424.258856
4408.620913
4429.561176
4425.964715
4427.752611
4452.325033
4442.818934
4408.783293
4444.029709
4435.086808
4444.033208
4431.333355
4425.886634
4434.112639
4434.327689
4409.435513
4456.454815
4390.689989
4451.642997
4435.273437
4421.438217
4434.223775
4431.739472
4445.605785
4454.638692
4389.717001
4456.521681
4403.595773
4453.079700
4439.313577
4467.770741
4415.260900
4420.090363
4461.318043
4408.619144
4435.112016
4449.457269
4435.362123
4453.916495
4419.050314
4421.869604
4433.254407
4435.512282
4429.140198
4419.410309
4439.091191
4413.854926
4445.419726
4426.634435
4423.471918
4405.638095
4458.202992
4434.533749
4446.539555
4447.678356
4426.299639
4427.492347
4447.633815
4396.729978
4455.182329
4368.166623
4427.394259
4431.548916
4414.724889
4463.091999
4439.940018
4414.678795
4392.178196
4444.755407
4439.396340
4446.903413
4412.463158
4423.501990
4425.380864
4439.590274
4427.499146
4428.838734
4431.125915
4414.815369
4421.644154
4440.434511
4423.208053
4426.801093
4400.933638
4466.714445
4394.907303
4408.677300
4391.896488
4451.610627
4426.107434
4460.487191
4421.681707
4438.110744
4423.110433
4433.010904
4427.897030
4409.931653
4424.813864
4453.294564
4414.932747
4423.982153
4478.805934
4410.188069
4440.297690
4428.233644
4432.632566
4422.564226
4423.393123
4432.569515
4444.110289
4437.298934
4418.008735
4425.169299
4442.227224
4414.342937
4412.762506
4412.440299
4447.763266
4422.907264
4460.947879
4403.216213
4460.119779
4416.241193
4436.338275
4415.791686
4423.322702
4424.544894
4429.893811
4412.274121
4414.945925
4428.869725
4427.856024
4429.658876
4410.271041
4426.482007
4431.584244
4425.475733
4428.788691
4447.251569
4420.403639
4408.757321
4436.132606
4434.057091
4421.608197
4411.598341
4445.582598
4432.285986
4434.424941
4442.084287
4391.332091
4446.072255
4396.852617
4457.042058
4429.026844
4431.488771
4410.239962
4427.145309
4419.626606
4425.529911
4471.687140
4405.713709
4405.257039
4449.568108
4393.723964
4435.702627
4411.914579
4424.731324
4430.289253
4433.758204
4414.040440
4436.331268
4444.035584
4430.146220
4426.807538
4439.437502
4440.985723
4414.156036
4434.185267
4438.479695
4398.930028
4429.315881
4431.168306
4417.587112
4372.234399
4376.057708
4462.057974
4435.269066
4410.160646
4422.672959
4402.812402
4448.309136
4419.323550
4413.658927
4464.283935
4428.416159
4422.844301
4444.994397
4432.251619
4435.120198
4425.876441
4434.257176
4435.065753
4404.762206
4430.842414
4433.775557
4412.827678
4432.115603
4461.938401
4414.652556
4439.117000
4442.459935
4432.655497
4399.454322
4421.112348
4496.460763
4464.239505
4429.981860
4436.002146
4432.022080
4424.952670
4422.010727
4412.224334
4420.583226
4437.387923
4417.247090
4428.397957
4412.993201
4438.781897
4434.844028
4426.336438
4430.203576
4436.847915
4423.296512
4444.290270
4435.822731
4419.230119
4442.125297
4429.548224
4414.720329
4428.262532
4445.329695
4412.219382
4437.445207
4460.782022
4385.600720
4456.780512
4400.651229
4391.974339
4429.639225
4436.089689
4430.032710
4401.770772
4471.636482
4404.064986
4413.502281
4422.708455
4467.007471
4361.089808
4419.204319
4433.637859
4432.810145
4440.702451
4424.531982
4420.633414
4441.166881
4406.485819
4419.255240
4431.673352
4440.493615
4431.399780
4429.104815
4414.753808
4461.826567
4427.295838
4434.853600
4396.344608
4393.280652
4463.528379
4456.496240
4443.992749
4401.301852
4394.510590
4430.247514
4437.739356
4449.214115
4375.372698
4474.809040
4431.027410
4457.779580
4419.106793
4441.279259
4434.099081
4420.234716
4429.921022
4436.429008
4414.843644
4412.526871
4412.241320
4444.664965
4411.181795
4408.786390
4438.098395
4426.333168
4420.573180
4401.565583
4430.420501
4465.897080
4448.960921
4333.957003
4474.423280
4461.140685
4430.590407
4475.405492
4425.247210
4434.404495
4456.168490
4440.701573
4432.514055
4401.103635
4413.427639
4438.404381
4435.534831
4432.420363
4432.061288
4433.780599
4413.005834
4436.428449
4433.255440
4418.805907
4432.227106
4449.250864
4396.058561
4429.606413
4419.665362
4425.459162
4411.766550
4452.530311
4365.383062
4454.225101
4324.945373
4494.440298
4435.445865
4421.541403
4425.341194
4497.905510
4419.927130
4436.509786
4397.804802
4465.844836
4353.538276
4436.942830
4444.586042
4429.264583
4428.592518
4431.159720
4425.298389
4424.365969
4433.695625
4417.180800
4432.797057
4405.228279
4416.350994
4448.483194
4450.355063
4398.970908
4449.896100
4382.241032
4467.664447
4390.680695
4473.046510
4465.300507
4506.842038
4421.676981
4419.950573
4368.736696
4421.895436
4415.519448
4440.632676
4457.450497
4445.228764
4436.816688
4354.494998
4453.825170
4422.031408
4429.353769
4430.858136
4430.165987
4423.920975
4426.989111
4406.890334
4439.270269
4444.398198
4436.549564
4418.015551
4429.482164
4426.792364
4443.111121
4437.505041
4422.953553
4436.365809
4426.893654
4433.008077
4500.540880
4444.402214
4426.705621
4437.335846
4424.169393
4413.257442
4445.129288
4415.008407
4442.742165
4431.513453
4448.924007
4416.342404
4423.925002
4431.638759
4429.058883
4429.325842
4446.201342
4444.458240
4413.679779
4448.471452
4392.216220
4415.278380
4444.341663
4443.356690
4425.087014
4381.735437
4429.144526
4419.428462
4460.111279
4406.164329
4396.129306
4430.019210
4392.285436
4420.762255
4427.016636
4439.698130
4427.224106
4452.290101
4387.731632
4384.480934
4481.661427
4460.778943
4409.046310
4432.184619
4435.798195
4409.061032
4438.003520
4404.894955
4443.405789
4403.021180
4425.552099
4446.324092
4427.647152
4441.369095
4424.796144
4459.617745
4451.684108
4437.610549
4453.231419
4374.659290
4450.908594
4430.851676
4445.838957
4429.727398
4441.704794
4426.671418
4438.867340
4439.052215
4452.318762
4478.382261
4447.884722
4392.254439
4420.844048
4402.529528
4432.886469
4433.126277
4423.201922
4445.691525
4400.722010
4420.661304
4433.181408
4427.381730
4420.596691
4428.983407
4420.740232
4403.782887
4419.109337
4411.959524
4436.238550
4416.311338
4437.682022
4420.262571
4433.990147
4439.663431
4431.376892
4429.834309
4434.628756
4419.495302
4438.485697
4434.851163
4398.464419
4491.438865
4399.250433
4452.961185
4425.199271
4426.050946
4429.323255
4431.734723
4398.930704
4439.526336
4433.112108
4415.594847
4421.933623
4420.172110
4433.553646
4440.995203
4458.275224
4408.355893
4434.438042
4412.041942
4422.840484
4425.168272
4409.001055
4417.520100
4437.976958
4426.284982
4411.352093
4441.051813
4429.482024
4447.029536
4440.988356
4443.738229
4438.414780
4355.520620
4397.423871
4407.319695
4421.173089
4420.949169
4434.578991
4417.144754
4442.359033
4393.097107
4445.308889
4434.022672
4429.451272
4398.555256
4373.645822
4445.058741
4426.892749
4404.325265
4416.050288
4446.575911
4475.676012
4385.984020
4434.084016
4438.351851
4430.650559
4428.990047
4432.112096
4426.920068
4413.455434
4456.644515
4436.876014
4391.479068
4449.227045
4465.860887
4419.685576
4430.716279
4424.856418
4415.763648
4406.433755
4424.436788
4429.091731
4435.878259
4433.599480
4455.199475
4420.561758
4388.367870
4427.080603
4461.225335
4422.857090
4436.542199
4410.595412
4439.840147
4397.059019
4385.560603
4421.229017
4443.409881
4433.425738
4414.615506
4440.008480
4409.876629
4429.366196
4403.364526
4391.961338
4450.213164
4409.591672
4428.177537
4423.410315
4419.843793
4432.637701
4445.581544
4439.994261
4430.503478
4422.749912
4440.240484
4429.183443
4382.603051
4451.066708
4456.976449
4425.322176
4418.000880
4393.388480
4427.648432
4435.283915
4459.668497
4452.426051
4418.847097
4445.795432
4429.844487
4434.771420
4408.660042
4462.276895
4444.277893
4435.341627
4452.833024
4454.115802
4429.854579
4405.693155
4424.480636
4429.125258
4419.815906
4404.250669
4439.270210
4400.075492
4441.093191
4428.351721
4427.810873
4418.769059
4464.070839
4397.398564
4435.079286
4411.323771
4424.186733
4405.647683
4435.525140
4427.158621
4403.547900
4465.070789
4441.198739
4430.535745
4404.783231
4449.819945
4399.866899
4436.018341
4393.249600
4424.029747
4375.949356
4402.665747
4411.543348
4428.167748
4431.640956
4429.553039
4433.586570
4446.449630
4426.874456
4410.365369
4422.282564
4447.897720
4419.149207
4438.709391
4438.779091
4416.869006
4439.144628
4427.058132
4402.393653
4432.545764
4457.190702
4393.934937
4431.644426
4417.384187
4398.717985
4436.866984
4423.829775
4442.257522
4463.914471
4438.331761
4411.913004
4404.963152
4453.139111
4446.338053
4428.306814
4421.915818
4430.715426
4435.644026
4394.249527
4421.381109
4451.909420
4426.950360
4415.931904
4419.819524
4439.889237
4411.069682
4441.979962
4454.411950
4427.709606
4426.135810
4423.530547
4441.308737
4447.688728
4350.557613
4404.938852
4425.636590
4419.385224
4436.023483
4456.436855
4478.185588
4441.557916
4447.439867
4421.812252
4408.277327
4384.969735
4431.579551
4436.367019
4426.851932
4426.556114
4449.846195
4432.417935
4432.625696
4436.810913
4423.091024
4408.021383
4423.534192
4424.794102
4427.865765
4423.771956
4453.227939
4383.552185
4429.016494
4470.834341
4391.980306
4532.487316
4391.753201
4424.621496
4414.063241
4425.889461
4440.532136
4436.147120
4411.302769
4457.552887
4469.793488
4449.847190
4419.954943
4431.491364
4437.979132
4418.190655
4423.948355
4419.319988
4420.177432
4435.352405
4427.756732
4418.889273
4429.660181
4397.263235
4434.975584
4395.095927
4442.654713
4440.957154
4442.740866
4428.063539
4412.725189
4432.020570
4428.417629
4464.534609
4439.096887
4462.003385
4419.843291
4458.489266
4478.399404
4412.023454
4385.265061
4463.701370
4434.375418
4460.320163
4432.348201
4427.512451
4438.512519
4435.842404
4416.888855
4451.140226
4414.641464
4451.792302
4414.387247
4432.372215
4427.766452
4427.101695
4426.028195
4443.755978
4397.562332
4445.887510
4427.728847
4395.048702
4443.861849
4450.297662
4438.810996
4436.482885
4457.060355
4467.974642
4446.463457
4434.976608
4375.130787
4380.663945
4379.160316
4362.376014
4405.687381
4432.710990
4433.292269
4417.675332
4418.064582
4431.508082
4430.493979
4425.705586
4437.468148
4425.869604
4445.975897
4436.643490
4459.111751
4429.241888
4427.876842
4456.701658
4426.330722
4418.721943
4450.325963
4393.408173
4429.206413
4449.173363
4418.614219
4434.528482
4430.838729
4459.665269
4447.165468
4388.860442
4460.543946
4445.519018
4417.449128
4443.183619
4438.222451
4424.385611
4443.549412
4423.249500
4440.231693
4419.892730
4407.766572
4431.100526
4467.171374
4410.022429
4440.465201
4420.547095
4420.867363
4452.087387
4400.908338
4437.065694
4424.996999
4453.981955
4390.602208
4412.265194
4416.374156
4433.078813
4378.145234
4441.958195
4377.322699
4414.877923
4443.945800
4464.684333
4463.294013
4410.821880
4419.758055
4430.366224
4416.015263
4425.026282
4426.157370
4450.326948
4436.010339
4417.408723
4417.120226
4406.621829
4428.742973
4387.689910
4448.949537
4439.788550
4430.807369
4440.116130
4441.016576
4420.736769
4460.270275
4471.130937
4380.694858
4423.391463
4418.146762
4433.216148
4413.565802
4389.889615
4443.191515
4398.967748
4465.274611
4433.749524
4403.766626
4401.959196
4422.606531
4441.435370
4438.438117
4420.317596
4430.458701
4419.906740
4435.711998
4434.985030
4421.062423
4415.656356
4447.803213
4429.659507
4403.374679
4432.600229
4419.990632
4389.022726
4432.465570
4454.479627