# vtk DataFile Version 2.0
mfree iwf
ASCII

DATASET UNSTRUCTURED_GRID
POINTS 6231 float
0.000000 0.000300 0.000000
0.000000 0.000310 0.000000
0.000000 0.000320 0.000000
0.000000 0.000330 0.000000
0.000000 0.000340 0.000000
0.000000 0.000350 0.000000
0.000001 0.000360 0.000000
0.000001 0.000370 0.000000
0.000001 0.000380 0.000000
0.000001 0.000390 0.000000
0.000001 0.000400 0.000000
0.000001 0.000410 0.000000
0.000001 0.000420 0.000000
0.000001 0.000430 0.000000
0.000001 0.000440 0.000000
0.000002 0.000450 0.000000
0.000002 0.000460 0.000000
0.000002 0.000471 0.000000
0.000002 0.000480 0.000000
0.000002 0.000492 0.000000
0.000006 0.000501 0.000000
0.000518 0.000806 0.000000
0.000572 0.000866 0.000000
0.000530 0.000819 0.000000
0.000583 0.000875 0.000000
0.000601 0.000888 0.000000
0.000646 0.000908 0.000000
0.000654 0.000910 0.000000
0.000667 0.000909 0.000000
0.000680 0.000911 0.000000
0.000712 0.000921 0.000000
0.000010 0.000300 0.000000
0.000010 0.000310 0.000000
0.000010 0.000320 0.000000
0.000010 0.000330 0.000000
0.000010 0.000340 0.000000
0.000010 0.000350 0.000000
0.000010 0.000360 0.000000
0.000011 0.000370 0.000000
0.000011 0.000380 0.000000
0.000011 0.000390 0.000000
0.000011 0.000400 0.000000
0.000011 0.000410 0.000000
0.000011 0.000420 0.000000
0.000011 0.000430 0.000000
0.000011 0.000440 0.000000
0.000012 0.000451 0.000000
0.000012 0.000460 0.000000
0.000012 0.000472 0.000000
0.000013 0.000478 0.000000
0.000009 0.000492 0.000000
0.000013 0.000498 0.000000
0.000620 0.000892 0.000000
0.000633 0.000897 0.000000
0.000641 0.000900 0.000000
0.000648 0.000900 0.000000
0.000665 0.000901 0.000000
0.000676 0.000903 0.000000
0.000691 0.000904 0.000000
0.000701 0.000908 0.000000
0.000707 0.000909 0.000000
0.000709 0.000916 0.000000
0.000020 0.000300 0.000000
0.000020 0.000310 0.000000
0.000020 0.000320 0.000000
0.000020 0.000330 0.000000
0.000020 0.000340 0.000000
0.000020 0.000351 0.000000
0.000020 0.000360 0.000000
0.000021 0.000370 0.000000
0.000020 0.000380 0.000000
0.000021 0.000390 0.000000
0.000021 0.000400 0.000000
0.000022 0.000410 0.000000
0.000020 0.000420 0.000000
0.000022 0.000431 0.000000
0.000020 0.000440 0.000000
0.000023 0.000451 0.000000
0.000021 0.000460 0.000000
0.000022 0.000470 0.000000
0.000021 0.000481 0.000000
0.000024 0.000494 0.000000
0.000020 0.000497 0.000000
0.000594 0.000870 0.000000
0.000618 0.000886 0.000000
0.000627 0.000891 0.000000
0.000633 0.000890 0.000000
0.000645 0.000887 0.000000
0.000658 0.000895 0.000000
0.000684 0.000899 0.000000
0.000698 0.000903 0.000000
0.000709 0.000897 0.000000
0.000716 0.000898 0.000000
0.000030 0.000300 0.000000
0.000030 0.000310 0.000000
0.000030 0.000320 0.000000
0.000030 0.000330 0.000000
0.000030 0.000340 0.000000
0.000030 0.000349 0.000000
0.000031 0.000360 0.000000
0.000030 0.000370 0.000000
0.000031 0.000380 0.000000
0.000031 0.000390 0.000000
0.000031 0.000400 0.000000
0.000031 0.000411 0.000000
0.000031 0.000420 0.000000
0.000032 0.000430 0.000000
0.000031 0.000440 0.000000
0.000030 0.000450 0.000000
0.000032 0.000459 0.000000
0.000036 0.000473 0.000000
0.000030 0.000478 0.000000
0.000033 0.000488 0.000000
0.000032 0.000497 0.000000
0.000063 0.000500 0.000000
0.000614 0.000879 0.000000
0.000631 0.000876 0.000000
0.000657 0.000887 0.000000
0.000666 0.000883 0.000000
0.000669 0.000893 0.000000
0.000677 0.000889 0.000000
0.000687 0.000890 0.000000
0.000695 0.000891 0.000000
0.000718 0.000890 0.000000
0.000040 0.000300 0.000000
0.000040 0.000310 0.000000
0.000040 0.000320 0.000000
0.000040 0.000329 0.000000
0.000040 0.000340 0.000000
0.000040 0.000351 0.000000
0.000040 0.000360 0.000000
0.000041 0.000370 0.000000
0.000041 0.000380 0.000000
0.000040 0.000390 0.000000
0.000042 0.000399 0.000000
0.000041 0.000410 0.000000
0.000042 0.000420 0.000000
0.000040 0.000431 0.000000
0.000042 0.000439 0.000000
0.000043 0.000450 0.000000
0.000043 0.000460 0.000000
0.000037 0.000469 0.000000
0.000045 0.000478 0.000000
0.000043 0.000496 0.000000
0.000040 0.000498 0.000000
0.000480 0.000635 0.000000
0.000623 0.000873 0.000000
0.000641 0.000878 0.000000
0.000650 0.000876 0.000000
0.000654 0.000882 0.000000
0.000676 0.000878 0.000000
0.000699 0.000883 0.000000
0.000702 0.000873 0.000000
0.000708 0.000888 0.000000
0.000719 0.000881 0.000000
0.000050 0.000300 0.000000
0.000050 0.000310 0.000000
0.000050 0.000319 0.000000
0.000050 0.000331 0.000000
0.000051 0.000339 0.000000
0.000051 0.000349 0.000000
0.000051 0.000360 0.000000
0.000050 0.000370 0.000000
0.000052 0.000379 0.000000
0.000050 0.000390 0.000000
0.000053 0.000400 0.000000
0.000048 0.000411 0.000000
0.000053 0.000420 0.000000
0.000051 0.000430 0.000000
0.000054 0.000440 0.000000
0.000047 0.000451 0.000000
0.000055 0.000458 0.000000
0.000053 0.000470 0.000000
0.000056 0.000483 0.000000
0.000049 0.000488 0.000000
0.000050 0.000498 0.000000
0.000607 0.000883 0.000000
0.000570 0.000856 0.000000
0.000637 0.000869 0.000000
0.000655 0.000866 0.000000
0.000669 0.000872 0.000000
0.000684 0.000878 0.000000
0.000679 0.000867 0.000000
0.000692 0.000876 0.000000
0.000709 0.000876 0.000000
0.000719 0.000869 0.000000
0.000060 0.000300 0.000000
0.000060 0.000310 0.000000
0.000060 0.000321 0.000000
0.000060 0.000330 0.000000
0.000061 0.000340 0.000000
0.000059 0.000351 0.000000
0.000062 0.000360 0.000000
0.000060 0.000370 0.000000
0.000063 0.000381 0.000000
0.000058 0.000390 0.000000
0.000063 0.000400 0.000000
0.000060 0.000409 0.000000
0.000064 0.000419 0.000000
0.000057 0.000430 0.000000
0.000066 0.000440 0.000000
0.000060 0.000449 0.000000
0.000066 0.000460 0.000000
0.000055 0.000472 0.000000
0.000064 0.000475 0.000000
0.000068 0.000486 0.000000
0.000058 0.000496 0.000000
0.000598 0.000879 0.000000
0.000614 0.000869 0.000000
0.000635 0.000858 0.000000
0.000646 0.000864 0.000000
0.000663 0.000859 0.000000
0.000672 0.000856 0.000000
0.000700 0.000861 0.000000
0.000690 0.000865 0.000000
0.000709 0.000864 0.000000
0.000719 0.000860 0.000000
0.000070 0.000300 0.000000
0.000070 0.000310 0.000000
0.000070 0.000319 0.000000
0.000070 0.000330 0.000000
0.000071 0.000339 0.000000
0.000069 0.000350 0.000000
0.000073 0.000357 0.000000
0.000067 0.000371 0.000000
0.000074 0.000376 0.000000
0.000069 0.000390 0.000000
0.000073 0.000400 0.000000
0.000068 0.000411 0.000000
0.000074 0.000421 0.000000
0.000068 0.000430 0.000000
0.000075 0.000439 0.000000
0.000066 0.000452 0.000000
0.000077 0.000459 0.000000
0.000073 0.000470 0.000000
0.000076 0.000486 0.000000
0.000068 0.000496 0.000000
0.000076 0.000496 0.000000
0.000479 0.000614 0.000000
0.000604 0.000867 0.000000
0.000626 0.000864 0.000000
0.000652 0.000850 0.000000
0.000665 0.000867 0.000000
0.000681 0.000855 0.000000
0.000690 0.000861 0.000000
0.000691 0.000848 0.000000
0.000708 0.000854 0.000000
0.000719 0.000850 0.000000
0.000080 0.000300 0.000000
0.000080 0.000310 0.000000
0.000080 0.000321 0.000000
0.000081 0.000330 0.000000
0.000080 0.000341 0.000000
0.000081 0.000350 0.000000
0.000077 0.000364 0.000000
0.000082 0.000370 0.000000
0.000081 0.000384 0.000000
0.000078 0.000391 0.000000
0.000087 0.000396 0.000000
0.000079 0.000408 0.000000
0.000084 0.000417 0.000000
0.000079 0.000430 0.000000
0.000087 0.000445 0.000000
0.000077 0.000447 0.000000
0.000086 0.000463 0.000000
0.000074 0.000470 0.000000
0.000087 0.000473 0.000000
0.000085 0.000482 0.000000
0.000084 0.000495 0.000000
0.000589 0.000874 0.000000
0.000564 0.000859 0.000000
0.000638 0.000849 0.000000
0.000647 0.000857 0.000000
0.000661 0.000849 0.000000
0.000671 0.000845 0.000000
0.000679 0.000845 0.000000
0.000699 0.000848 0.000000
0.000709 0.000845 0.000000
0.000719 0.000840 0.000000
0.000090 0.000300 0.000000
0.000090 0.000310 0.000000
0.000090 0.000320 0.000000
0.000090 0.000329 0.000000
0.000090 0.000339 0.000000
0.000092 0.000350 0.000000
0.000089 0.000359 0.000000
0.000091 0.000368 0.000000
0.000089 0.000378 0.000000
0.000092 0.000388 0.000000
0.000086 0.000407 0.000000
0.000094 0.000407 0.000000
0.000089 0.000425 0.000000
0.000096 0.000426 0.000000
0.000088 0.000436 0.000000
0.000097 0.000455 0.000000
0.000087 0.000454 0.000000
0.000097 0.000471 0.000000
0.000106 0.000480 0.000000
0.000089 0.000495 0.000000
0.000094 0.000495 0.000000
0.000480 0.000653 0.000000
0.000599 0.000861 0.000000
0.000586 0.000862 0.000000
0.000618 0.000860 0.000000
0.000653 0.000840 0.000000
0.000675 0.000837 0.000000
0.000690 0.000840 0.000000
0.000697 0.000836 0.000000
0.000708 0.000835 0.000000
0.000718 0.000830 0.000000
0.000100 0.000300 0.000000
0.000100 0.000310 0.000000
0.000100 0.000320 0.000000
0.000100 0.000331 0.000000
0.000101 0.000340 0.000000
0.000099 0.000350 0.000000
0.000102 0.000361 0.000000
0.000099 0.000372 0.000000
0.000102 0.000381 0.000000
0.000100 0.000392 0.000000
0.000101 0.000399 0.000000
0.000103 0.000410 0.000000
0.000100 0.000418 0.000000
0.000100 0.000435 0.000000
0.000110 0.000444 0.000000
0.000097 0.000445 0.000000
0.000107 0.000460 0.000000
0.000098 0.000467 0.000000
0.000095 0.000481 0.000000
0.000106 0.000491 0.000000
0.000101 0.000494 0.000000
0.000534 0.000824 0.000000
0.000540 0.000832 0.000000
0.000560 0.000854 0.000000
0.000645 0.000842 0.000000
0.000662 0.000837 0.000000
0.000669 0.000829 0.000000
0.000690 0.000830 0.000000
0.000682 0.000824 0.000000
0.000705 0.000827 0.000000
0.000716 0.000821 0.000000
0.000110 0.000300 0.000000
0.000110 0.000310 0.000000
0.000110 0.000320 0.000000
0.000110 0.000329 0.000000
0.000110 0.000339 0.000000
0.000111 0.000350 0.000000
0.000110 0.000359 0.000000
0.000111 0.000369 0.000000
0.000111 0.000378 0.000000
0.000110 0.000388 0.000000
0.000112 0.000400 0.000000
0.000111 0.000412 0.000000
0.000115 0.000423 0.000000
0.000107 0.000427 0.000000
0.000112 0.000434 0.000000
0.000106 0.000449 0.000000
0.000115 0.000461 0.000000
0.000111 0.000471 0.000000
0.000116 0.000480 0.000000
0.000111 0.000493 0.000000
0.000119 0.000492 0.000000
0.000500 0.000762 0.000000
0.000481 0.000674 0.000000
0.000595 0.000854 0.000000
0.000620 0.000850 0.000000
0.000611 0.000844 0.000000
[...]
POINT_DATA 6231
SCALARS density float 1
LOOKUP_TABLE default
4408.366935
4425.240437
4422.341765
4423.285234
4426.548972
4425.792806
4422.586361
4424.869539
4429.604954
4428.775937
4426.680604
4431.353509
4427.747362
4429.696326
4431.027652
4440.501126
4423.486334
4431.421285
4412.603982
4423.955845
4411.203867
4427.219982
4425.146685
4434.545540
4440.868699
4418.167003
4403.281418
4437.082688
4449.583312
4452.060317
4423.457696
4413.176791
4424.203835
4423.602862
4423.824913
4424.067705
4425.964433
4426.977424
4425.047436
4424.864469
4429.590347
4423.614667
4430.698038
4425.273908
4437.473108
4417.275366
4426.407489
4409.958079
4445.389469
4460.980544
4460.316663
4416.395549
4406.316523
4402.572400
4427.680184
4500.668222
4393.913758
4405.395524
4425.344145
4416.845508
4465.033809
4455.097230
4418.120997
4428.092449
4424.841294
4428.293418
4424.671030
4423.695788
4426.537468
4439.264448
4420.511936
4430.467106
4428.813910
4433.427593
4419.795037
4438.264294
4413.198376
4478.605569
4398.934377
4452.933162
4351.675292
4449.282345
4420.678401
4415.845171
4432.653241
4409.977626
4529.888012
4338.751761
4362.495862
4429.928807
4408.584938
4408.640168
4400.359327
4424.203886
4427.633664
4423.167019
4427.926557
4431.494730
4438.724237
4422.082031
4419.210965
4424.408744
4437.332615
4412.110182
4437.426968
4415.351684
4448.631065
4402.640229
4432.518982
4388.202620
4459.448007
4367.699508
4557.571367
4370.290336
4431.110243
4456.316590
4422.686398
4491.069640
4352.726979
4490.717499
4454.265434
4388.858849
4501.734109
4451.972775
4428.650698
4428.636152
4433.370086
4437.666795
4421.227695
4423.171818
4435.206561
4441.326126
4424.708942
4433.970677
4409.960742
4453.801649
4403.049359
4444.802148
4413.358064
4449.155277
4387.413574
4509.361213
4307.419121
4419.743778
4383.770660
4475.937049
4421.142727
4399.832482
4442.457563
4470.202043
4448.075286
4390.416990
4489.820227
4424.380876
4422.844385
4428.243344
4428.037524
4423.282873
4427.119151
4436.541003
4444.748223
4410.062736
4433.336381
4405.815035
4443.747694
4423.858491
4433.943743
4408.810185
4457.344513
4366.337823
4480.767462
4360.238941
4476.301510
4361.095139
4535.675335
4383.073804
4443.871050
4427.142476
4456.209678
4395.936189
4424.906780
4435.889144
4390.543398
4385.342001
4409.777065
4414.355327
4426.008671
4440.974811
4428.901461
4441.681399
4415.530878
4440.350662
4413.294164
4452.616559
4419.557486
4442.388798
4413.369696
4444.225798
4423.823289
4432.861229
4422.705910
4468.787081
4402.646136
4519.493130
4374.200495
4481.521842
4432.051476
4418.853352
4390.820720
4412.954262
4464.052942
4465.454497
4426.849915
4399.953018
4434.819864
4425.763993
4426.185115
4428.975434
4432.310786
4409.221961
4439.175847
4424.593202
4445.843890
4423.673556
4437.787676
4403.709204
4443.718836
4394.393965
4424.083364
4415.130595
4436.834162
4434.826412
4453.258454
4438.500071
4456.571279
4447.834539
4412.305077
4388.461056
4590.179323
4461.840243
4444.165776
4459.217206
4443.149065
4417.843994
4466.985223
4432.594305
4451.553566
4413.637470
4424.903320
4431.482488
4427.650443
4427.610890
4416.133330
4426.124481
4417.583258
4444.452126
4452.134515
4439.863896
4402.714918
4443.535503
4401.081671
4444.500715
4471.055787
4392.031163
4455.357238
4453.326695
4357.107734
4466.538903
4412.201819
4432.787031
4413.892606
4425.498691
4435.212000
4387.355226
4452.314833
4431.815346
4407.347531
4436.491351
4434.785531
4424.458966
4427.260575
4433.727103
4422.355141
4427.845606
4441.206363
4413.949825
4446.364077
4409.800852
4426.050978
4457.971613
4408.882055
4427.386651
4471.933698
4415.171495
4378.584853
4439.232354
4436.912518
4426.740928
4425.724213
4416.424450
4423.091337
4436.052505
4425.769101
4478.767047
4422.061302
4382.692178
4447.171374
4449.027913
4424.392262
4419.178902
4430.437942
4431.507432
4424.206688
4436.142637
4422.343757
4422.653457
4424.628089
4408.752094
4437.426135
4444.347165
4436.994916
4432.721256
4422.171986
4382.063165
4447.905898
4448.216659
4416.284795
4469.925188
4413.337990
4437.191707
4419.940812
4424.908662
4427.133609
4422.475872
4412.960306
4471.763143
4390.089630
4391.188105
4471.640401
4442.177444
4422.895578
4429.812991
4434.504730
4428.940080
4433.180113
4425.657805
4421.853911
4445.517582
4427.502359
4445.374006
4408.765588
4411.460403
4456.610493
4392.488079
4439.383920
4435.026091
4441.215283
4467.148667
4386.368779
4465.337456
4399.455832
4410.646853
4428.778958
4435.861491
4432.508762
4390.534680
4440.825836
4464.112368
4465.766426
4417.507386
4424.382681
4449.926027
4431.231355
4427.248467
4426.252538
4420.363007
4436.412166
4429.085580
4406.394604
4436.781264
4406.566677
4453.004605
4446.076718
4412.092071
4434.429257
4436.569249
4421.183651
4369.621418
4434.368306
4393.934203
4421.577925
4436.210763
4391.803239
4443.497525
4414.462977
4424.718696
4448.488301
4457.966526
4392.725972
4334.450517
4459.761730
4389.348671
4414.032018
4435.780414
4434.536979
4432.980315
4439.123855
4418.954699
4428.641844
4427.483311
4436.105502
4428.596176
4410.282602
4393.920214
4429.744786
4451.966838
4411.321232
4419.296516
4449.434851
4412.126838
4447.363957
4496.184011
4419.117740
4432.671759
4433.672759
4406.289999
4419.997044
4430.354058
4432.083346
4420.337611
4480.349742
4477.231834
4480.137655
4449.998389
4434.442459
4435.114610
4426.600818
4421.457373
4431.255782
4430.755644
4426.561143
4406.957659
4446.634311
4422.753478
4445.097577
4437.851612
4409.158136
4429.068684
4439.870398
4376.517368
4416.855338
4504.810388
4564.094422
4388.863449
4381.626045
4417.831604
4414.948236
4467.523658
4460.331723
4384.238615
4448.598598
4410.752371
4407.934799
4405.398104
4448.697504
4434.609635
4433.936628
4438.433017
4433.432972
4430.897219
4411.182423
4431.310094
4445.802898
4412.889565
4411.623115
4436.823270
4414.284220
4447.618477
4423.143401
4436.743131
4439.159867
4482.316857
4366.048162
4328.055463
4502.096781
4396.952106
4410.887133
4436.551958
4415.167160
4480.218331
4458.043868
4422.990015
4422.545504
4399.461858
4420.450386
4410.972347
4434.301492
4425.551413
4427.850155
4418.967744
4441.349182
4430.665386
4420.545534
4417.787483
4443.486734
4440.736412
4421.685744
4415.482096
4442.788714
4400.503097
4430.001498
4438.018563
4390.846520
4490.325414
4474.878493
4418.820664
4405.118427
4425.533847
4461.605402
4432.554265
4401.068003
4441.487447
4441.757341
4421.444268
4401.906076
4438.922738
4427.427020
4433.556775
4429.237271
4444.038252
4434.519683
4428.605542
4423.404378
4438.078725
4431.561545
4418.306067
4409.946016
4439.532922
4431.997125
4410.074522
4460.692398
4419.297288
4416.134312
4406.235475
4475.155370
4345.337575
4360.596633
4424.407568
4431.345056
4431.940969
4401.986632
4405.519022
4444.989878
4428.070175
4433.004773
4468.760995
4421.822439
4432.396646
4436.449292
4428.188426
4418.820015
4432.517119
4439.314016
4432.050707
4425.081622
4421.743297
4437.965768
4442.931853
4420.207277
4427.656873
4428.921410
4425.533798
4396.496643
4478.039992
4345.051698
4474.909321
4395.619932
4444.400061
4393.287517
4413.518748
4428.482072
4435.003703
4465.360862
4399.642052
4462.662294
4461.635497
4410.495593
4430.985866
4424.255138
4430.608250
4421.459247
4442.220629
4438.445310
4423.944208
4429.195816
4430.820369
4434.497156
4405.038581
4424.163869
4418.945514
4441.084690
4411.444478
4437.650648
4422.955865
4414.711726
4397.559911
4469.306946
4424.565948
4566.863704
4383.223420
4474.323839
4444.423901
4415.594588
4439.114346
4427.463180
4419.807623
4406.161780
4422.389859
4447.465988
4401.321603
4430.074219
4432.864517
4425.833919
4413.612891
4437.415620
4434.237917
4418.325272
4433.140666
4429.358524
4433.224494
4424.655713
4434.602926
4402.547020
4431.289842
4412.957877
4460.911043
4445.772759
4475.117336
4362.159695
4397.719344
4528.910250
4407.443404
4425.082172
4445.999460
4434.578751
4355.426632
4424.409336
4435.622119
4461.112706
4404.438745
4386.602030
4429.801184
4434.963301
4427.710384
4436.749201
4439.060766
4418.292435
4426.474687
4424.946876
4414.814035
4433.025637
4407.379183
4430.452565
4435.017217
4425.510494
4411.659642
4423.004801
4414.934203
4443.525649
4390.025790
4470.223313
4415.867052
4434.957625
4407.654884
4408.116607
4440.151892
4435.713185
4417.378831
4459.386649
4343.811679
4395.629715
4452.242231
4429.693588
4428.289385
4426.438656
4431.672014
4402.467228
4443.082368
4419.363115
4446.748221
4424.277442
4426.090528
4438.131746
4421.081140
4433.914488
4431.076507
4422.920691
4464.758789
4399.774442
4384.964737
4448.755642
4448.517897
4424.594354
4421.426371
4450.494045
4446.795931
4407.302998
4439.454940
4512.605488
4376.746846
4508.957152
4352.149381
4443.544997
4430.895562
4431.594528
4430.551974
4431.258637
4435.371692
4444.728405
4399.018566
4414.735030
4412.097189
4427.675164
4407.718285
4440.256252
4398.565047
4447.994472
4433.492263
4385.601423
4453.464616
4444.307369
4390.191382
4432.959061
4431.707831
4425.561113
4468.833073
4409.675725
4446.899172
4463.389481
4426.622638
4364.737597
4462.379210
4444.105969
4445.528289
4428.298765
4426.842060
4427.490455
4417.545783
4418.436631
4412.883876
4453.740644
4439.746482
4412.510445
4441.627845
4398.083044
4455.135558
4401.261847
4418.565675
4403.844948
4451.427805
4388.788194
4455.131223
4442.581905
4487.072002
4411.270558
4420.376479
4433.264493
4386.124414
4440.508759
4448.611040
4462.809615
4428.337146
4451.479667
4431.034902
4457.607052
4431.461976
4425.834732
4433.082227
4436.174968
4432.144460
4442.167758
4393.994133
4408.236561
4417.428252
4436.064076
4433.102263
4432.626961
4437.181808
4416.526294
4446.210699
4452.702172
4377.913993
4473.258385
4361.800219
4419.207028
4432.297628
4408.792356
4452.328860
4430.229677
4406.965324
4406.545339
4436.268928
4433.826167
4418.475233
4409.840748
4414.586922
4423.796687
4433.399368
4422.937238
4419.139507
4412.367895
4426.078986
4431.432334
4436.394371
4444.195385
4394.874718
4429.094753
4407.881445
4422.185244
4428.053347
4397.751055
4423.066739
4435.728114
4451.175102
4412.579939
4451.220075
4431.959609
4553.986546
4412.039977
4367.076990
4449.437117
4441.190545
4427.355429
4445.000613
4498.827765
4400.589717
4444.229873
4427.912358
4438.230976
4421.092263
4437.546832
4447.309853
4415.868357
4442.842024
4394.750792
4414.956322
4447.968918
4416.778541
4440.903065
4400.179007
4437.541705
4416.498562
4463.103331
4390.928955
4473.356671
4406.701531
4425.146472
4419.727190
4420.198122
4416.887837
4434.990742
4433.909982
4438.222283
4431.457405
4437.595895
4427.628223
4380.221531
4430.017405
4428.542842
4426.612218
4426.225543
4421.738989
4421.243061
4435.534679
4414.746640
4452.421949
4426.829495
4420.648804
4389.928082
4456.000683
4431.023533
4449.382347
4423.518587
4426.342554
4411.278400
4448.636870
4431.084187
4433.084557
4409.983124
4397.526696
4414.929937
4415.671693
4482.451682
4421.458827
4430.643628
4441.458068
4374.308535
4440.806262
4410.031408
4426.493586
4425.680946
4436.756620
4437.909982
4428.402943
4442.833511
4401.845205
4445.535632
4387.019269
4437.832802
4458.027203
4400.608303
4417.804227
4406.053270
4448.519818
4417.775183
4409.722397
4357.065778
4385.319013
4463.522281
4445.930586
4406.291480
4419.629901
4396.378591
4476.617754
4452.831497
4398.923511
4445.840681
4444.221317
4437.162355
4456.516801
4434.788072
4436.139056
4414.336986
4429.137981
4417.796272
4426.053911
4436.901703
4414.072873
4442.181482
4414.255786
4402.463602
4438.528229
4440.146349
4418.077618
4436.069290
4424.996858
4422.775166
4483.834428
4461.424776
4436.262711
4445.852969
4546.977050
4418.286888
4415.941312
4442.354877
4451.799712
4401.576614
4426.616150
4398.182805
4426.237619
4415.572448
4426.457578
4430.738860
4434.900216
4444.040036
4432.949002
4423.727980
4441.632344
4405.290218
4443.792647
4431.813785
4421.149651
4416.831594
4419.311090
4431.078895
4412.339750
4441.338248
4389.102833
4443.898022
4388.349020
4374.796477
4433.388906
4441.415001
4450.111477
4477.597948
4468.071983
4416.405438
4445.386307
4423.925399
4448.865015
4344.492838
4411.689156
4430.936895
4426.131347
4432.629917
4404.650925
4441.567942
4436.393711
4401.025150
4451.022643
4397.505256
4413.347042
4456.972400
4424.337581
4424.389053
4442.672108
4427.004412
4437.886217
4415.021538
4383.331771
4471.490380
4466.919270
4448.777487
4400.557425
4400.535080
4463.064364
4372.977546
4439.271784
4392.046946
4435.963100
4437.926025
4447.682453
4426.473597
4441.077924
4429.931237
4432.399462
4440.496546
4433.860601
4414.267611
4415.746598
4427.196123
4424.945832
4446.924259
4385.493611
4455.211684
4410.336717
4424.512314
4381.056740
4438.268213
4449.475387
4464.259580
4347.679017
4471.203527
4459.692694
4443.147376
4456.634480
4437.714317
4471.132818
4410.008556
4444.566501
4419.837204
4387.698321
4399.378567
4439.748196
4432.012254
4427.348562
4418.882534
4418.026910
4419.851529
4445.140890
4393.770806
4427.592463
4392.911401
4449.324882
4403.367147
4442.627999
4390.330244
4462.638093
4425.907507
4427.946023
4382.960747
4447.607015
4307.365796
4497.479772
4586.216196
4422.993704
4416.292405
4458.610152
4428.483920
4380.235333
4442.095243
4496.104304
4375.329710
4458.650109
4445.848593
4427.691776
4435.101730
4437.065326
4430.765831
4430.081868
4432.119134
4426.339135
4439.668369
4462.423771
4408.489611
4390.942531
4424.972635
4440.626143
4415.486133
4397.948849
4456.138752
4384.578179
4454.974641
4456.897995
4505.818284
4428.281341
4420.294980
4399.505841
4433.255781
4409.015171
4426.023614
4431.285250
4450.770362
4420.542398
4379.120700
4454.568160
4423.633215
4427.463168
4421.927116
4426.138479
4418.301855
4428.170100
4423.811260
4398.966893
4376.689686
4456.822138
4451.310141
4432.397469
4406.121358
4444.112144
4440.277377
4431.606148
4447.220057
4442.963415
4444.390419
4479.268309
4643.301292
4489.814604
4597.996837
4431.421328
4437.123118
4441.724359
4444.795356
4447.659852
4430.499648
4429.168848
4417.370258
4426.037175
4434.301285
4427.605272
4429.107373
4421.249341
4425.873402
4442.927925
4455.481927
4443.739024
4413.708603
4389.987147
4412.797692
4442.310336
4428.698184
4385.073873
4422.452638
4422.844905
4406.548754
4420.109981
4424.535573
4396.204620
4418.633897
4467.357317
4401.005512
4449.464099
4455.287893
4444.358151
4412.852106
4459.235932
4443.618313
4409.063666
4424.144306
4428.822849
4408.087362
4424.538517
4428.778509
4426.002899
4402.741208
4454.148626
4420.753559
4443.816053
4426.642183
4437.833762
4420.234476
4444.065804
4442.030805
4447.526079
4395.082658
4432.107826
4467.442312
4460.384016
4427.825051
4441.811526
4386.954534
4465.334131
4440.467874
4402.503791
4467.571319
4435.511536
4371.222823
4425.760529
4398.546964
4422.939613
4417.280681
4442.264141
4435.913174
4421.389432
4424.904026
4429.762160
4400.564803
4427.523751
4429.447573
4415.294986
4414.534754
4421.085233
4405.312074
4439.650514
4407.792378
4439.991449
4343.008218
4449.211538
4491.259608
4409.413422
4476.959287
4453.431444
4456.144545
4442.287537
4446.169056
4419.182507
4491.705448
4406.310623
4453.792470
4402.301526
4422.758934
4433.257684
4411.933671
4419.167986
4425.008618
4409.348282
4412.049128
4427.909882
4428.787591
4416.719582
4410.130389
4432.267052
4394.466680
4439.649545
4422.779292
4447.410012
4401.147980
4399.096909
4448.866241
4424.796986
4490.506891
4451.290180
4445.894353
4459.106762
4467.579610
4441.992788
4433.660535
4441.395738
4385.583101
4393.723151
4419.811457
4423.774086
4429.456456
4425.991902
4427.774701
4439.473297
4412.121164
4462.544046
4426.843926
4420.819641
4422.117031
4433.271109
4450.026211
4399.538552
4409.726365
4430.600403
4417.687879
4452.865411
4392.175900
4435.476813
4449.914434
4407.921010
4437.757569
4462.141988
4446.438945
4371.820709
4492.342336
4424.630375
4400.798016
4469.908802
4454.744765
4419.069905
4424.205901
4416.862620
4425.212618
4422.042983
4414.563611
4447.734126
4387.188557
4447.266565
4418.475986
4401.299852
4382.064938
4447.296782
4439.296053
4411.681914
4412.853749
4437.830731
4404.266441
4434.842363
4390.280510
4415.420695
4419.307170
4332.082760
4445.115023
4432.251179
4454.513423
4460.328002
4423.083879
4452.850595
4454.895832
4350.607731
4415.002499
4420.062862
4423.806885
4435.358017
4425.664504
4410.274324
4441.282068
4427.877268
4435.808445
4414.929748
4436.241316
4417.747038
4435.848615
4386.033242
4424.016554
4406.368571
4419.584827
4369.628577
4466.076743
4431.557434
4479.724792
4433.111362
4392.029118
4443.437704
4444.804334
4444.761134
4412.501543
4469.920625
4408.693389
4468.207262
4422.078514
4405.092031
4421.623339
4429.952585
4406.932738
4427.945623
4438.526282
4390.914439
4435.775208
4429.294302
4426.953871
4451.139364
4391.287059
4422.713540
4421.418992
4452.481875
4462.384042
4377.366845
4474.002836
4419.414612
4363.670520
4507.873414
4435.516686
4400.014603
4493.771332
4475.337414
4446.824008
4439.203488
4456.594898
4439.617443
4429.783455
4438.685003
4420.271518
4418.381416
4421.757977
4435.464145
4415.900105
4433.240071
4438.193886
4414.042123
4412.824999
4425.299882
4444.671029
4430.684459
4456.270485
4422.073395
4419.924470
4447.857885
4451.453924
4368.056484
4475.061335
4490.764805
4598.677525
4347.944049
4567.233232
4463.391535
4493.486503
4452.443588
4469.899863
4461.199273
4384.745890
4467.416302
4397.474256
4444.137528
4423.130345
4432.406793
4425.357199
4423.560251
4403.797676
4435.734154
4418.904335
4440.882518
4396.633840
4432.987009
4427.909546
4390.061302
4443.314271
4415.219742
4426.587006
4435.791161
4421.242028
4492.862683
4331.422352
4356.041185
4307.521555
4472.874534
4504.190950
4475.560622
4454.760772
4433.144183
4459.215506
4438.918210
4457.268453
4414.932294
4387.437593
4432.490763
4428.701107
4411.569761
4435.784882
4433.871599
4419.262261
4420.644528
4422.717113
4402.869615
4440.734027
4398.507050
4444.821975
4436.524379
4407.634139
4396.266036
4439.362656
4441.801324
4415.509146
4447.067064
4536.396162
4403.672817
4461.222186
4479.448297
4479.893704
4428.807554
4479.342807
4417.514010
4465.864383
4451.735737
4419.400446
4432.939490
4428.517919
4426.572487
4444.546317
4413.993403
4407.260456
4422.545901
4416.451776
4424.910852
4415.539028
4421.466989
4426.618211
4415.022578
4400.503457
4426.636684
4442.268236
4426.700389
4406.676900
4420.224093
4448.649273
4415.831771
4432.402718
4415.559998
4480.995517
4440.915134
4427.436242
4428.896197
4436.957372
4444.840583
4412.896411
4448.411227
4426.630352
4436.363415
4421.592581
4427.259307
4423.287374
4419.295768
4449.954018
4411.520950
4434.191866
4439.544230
4413.050632
4418.268175
4420.209670
4443.102556
4444.717503
4413.028774
4414.332916
4427.201029
4454.479036
4445.603500
4463.317337
4500.414575
4468.524769
4450.333470
4467.273627
4460.731589
4451.215903
4438.408437
4476.850186
4417.262438
4412.430146
4362.487920
4429.096474
4430.624750
4418.234865
4424.254226
4441.530825
4393.948157
4451.950909
4405.281924
4437.104174
4418.862365
4415.082224
4428.880525
4408.113049
4415.659899
4411.033367
4455.837998
4423.147166
4410.468710
4450.725453
4449.437527
4421.775242
4423.679908
4439.249541
4473.812877
4444.343389
4430.927324
4449.104105
4480.573168
4457.330505
4438.650297
4408.289266
4426.573861
4418.658954
4450.929996
4400.852539
4423.342239
4422.174563
4429.627577
4409.141303
4409.344842
4442.626993
4433.271959
4440.390941
4411.505522
4425.686748
4425.259312
4414.427550
4413.886739
4449.230667
4439.485943
4439.998135
4446.893065
4427.270543
4481.358079
4418.110036
4451.802192
4431.776412
4455.322436
4463.282365
4466.006558
4417.257901
4394.113814
4432.571875
4426.039793
4415.806902
4434.737484
4421.028650
4433.850868
4421.072227
4429.077686
4447.518508
4405.701399
4418.260697
4415.041770
4450.077653
4441.632614
4412.808751
4408.562774
4438.031393
4418.895610
4435.327127
4404.314577
4458.534057
4458.886860
4445.388008
4454.903409
4423.549495
4480.044890
4444.773507
4415.689750
4411.882415
4401.183852
4376.644145
4427.690771
4431.472810
4419.346378
4434.502990
4427.084939
4417.550621
4440.780803
4419.940811
4401.287639
4443.191948
4432.890030
4419.420643
4396.765388
4447.833050
4419.376428
4409.299840
4443.244409
4443.583420