# vtk DataFile Version 2.0
mfree iwf
ASCII

DATASET UNSTRUCTURED_GRID
POINTS 6231 float
0.000000 0.000300 0.000000
0.000000 0.000310 0.000000
0.000000 0.000320 0.000000
0.000000 0.000330 0.000000
0.000000 0.000340 0.000000
0.000000 0.000350 0.000000
0.000001 0.000360 0.000000
0.000001 0.000370 0.000000
0.000001 0.000380 0.000000
0.000001 0.000390 0.000000
0.000001 0.000400 0.000000
0.000001 0.000410 0.000000
0.000001 0.000420 0.000000
0.000001 0.000430 0.000000
0.000002 0.000440 0.000000
0.000002 0.000450 0.000000
0.000002 0.000460 0.000000
0.000002 0.000471 0.000000
0.000002 0.000480 0.000000
0.000002 0.000492 0.000000
0.000006 0.000501 0.000000
0.000463 0.000772 0.000000
0.000511 0.000837 0.000000
0.000474 0.000787 0.000000
0.000521 0.000848 0.000000
0.000538 0.000862 0.000000
0.000581 0.000887 0.000000
0.000588 0.000889 0.000000
0.000601 0.000889 0.000000
0.000614 0.000893 0.000000
0.000647 0.000905 0.000000
0.000010 0.000300 0.000000
0.000010 0.000310 0.000000
0.000010 0.000320 0.000000
0.000010 0.000330 0.000000
0.000010 0.000340 0.000000
0.000010 0.000350 0.000000
0.000011 0.000360 0.000000
0.000011 0.000370 0.000000
0.000011 0.000380 0.000000
0.000011 0.000390 0.000000
0.000011 0.000400 0.000000
0.000011 0.000410 0.000000
0.000011 0.000420 0.000000
0.000011 0.000430 0.000000
0.000012 0.000440 0.000000
0.000012 0.000451 0.000000
0.000012 0.000460 0.000000
0.000012 0.000472 0.000000
0.000013 0.000478 0.000000
0.000010 0.000492 0.000000
0.000013 0.000498 0.000000
0.000557 0.000868 0.000000
0.000569 0.000874 0.000000
0.000577 0.000878 0.000000
0.000584 0.000879 0.000000
0.000601 0.000881 0.000000
0.000611 0.000884 0.000000
0.000626 0.000887 0.000000
0.000636 0.000892 0.000000
0.000642 0.000893 0.000000
0.000644 0.000900 0.000000
0.000020 0.000300 0.000000
0.000020 0.000310 0.000000
0.000020 0.000320 0.000000
0.000020 0.000330 0.000000
0.000020 0.000340 0.000000
0.000020 0.000351 0.000000
0.000020 0.000360 0.000000
0.000021 0.000370 0.000000
0.000020 0.000380 0.000000
0.000022 0.000390 0.000000
0.000020 0.000400 0.000000
0.000022 0.000410 0.000000
0.000020 0.000420 0.000000
0.000022 0.000431 0.000000
0.000020 0.000440 0.000000
0.000023 0.000451 0.000000
0.000021 0.000460 0.000000
0.000022 0.000470 0.000000
0.000021 0.000481 0.000000
0.000024 0.000494 0.000000
0.000020 0.000497 0.000000
0.000532 0.000844 0.000000
0.000554 0.000861 0.000000
0.000563 0.000868 0.000000
0.000570 0.000867 0.000000
0.000582 0.000866 0.000000
0.000594 0.000875 0.000000
0.000620 0.000881 0.000000
0.000633 0.000886 0.000000
0.000645 0.000882 0.000000
0.000652 0.000883 0.000000
0.000030 0.000300 0.000000
0.000030 0.000310 0.000000
0.000030 0.000320 0.000000
0.000030 0.000330 0.000000
0.000030 0.000340 0.000000
0.000031 0.000350 0.000000
0.000030 0.000360 0.000000
0.000030 0.000370 0.000000
0.000031 0.000380 0.000000
0.000031 0.000390 0.000000
0.000031 0.000400 0.000000
0.000031 0.000411 0.000000
0.000031 0.000420 0.000000
0.000032 0.000430 0.000000
0.000031 0.000440 0.000000
0.000031 0.000450 0.000000
0.000031 0.000459 0.000000
0.000036 0.000473 0.000000
0.000030 0.000478 0.000000
0.000033 0.000488 0.000000
0.000032 0.000497 0.000000
0.000063 0.000500 0.000000
0.000551 0.000854 0.000000
0.000569 0.000853 0.000000
0.000594 0.000867 0.000000
0.000604 0.000864 0.000000
0.000606 0.000874 0.000000
0.000614 0.000869 0.000000
0.000624 0.000872 0.000000
0.000633 0.000874 0.000000
0.000655 0.000875 0.000000
0.000040 0.000300 0.000000
0.000040 0.000310 0.000000
0.000040 0.000320 0.000000
0.000040 0.000329 0.000000
0.000040 0.000340 0.000000
0.000040 0.000350 0.000000
0.000040 0.000360 0.000000
0.000041 0.000370 0.000000
0.000041 0.000380 0.000000
0.000040 0.000390 0.000000
0.000042 0.000399 0.000000
0.000041 0.000410 0.000000
0.000042 0.000420 0.000000
0.000040 0.000431 0.000000
0.000042 0.000439 0.000000
0.000043 0.000450 0.000000
0.000043 0.000460 0.000000
0.000037 0.000469 0.000000
0.000045 0.000478 0.000000
0.000043 0.000496 0.000000
0.000040 0.000498 0.000000
0.000440 0.000605 0.000000
0.000562 0.000850 0.000000
0.000578 0.000856 0.000000
0.000588 0.000854 0.000000
0.000591 0.000861 0.000000
0.000613 0.000858 0.000000
0.000636 0.000866 0.000000
0.000641 0.000857 0.000000
0.000645 0.000872 0.000000
0.000656 0.000866 0.000000
0.000050 0.000300 0.000000
0.000050 0.000310 0.000000
0.000050 0.000319 0.000000
0.000050 0.000331 0.000000
0.000050 0.000340 0.000000
0.000051 0.000350 0.000000
0.000051 0.000360 0.000000
0.000049 0.000370 0.000000
0.000052 0.000379 0.000000
0.000050 0.000390 0.000000
0.000053 0.000400 0.000000
0.000049 0.000411 0.000000
0.000053 0.000420 0.000000
0.000051 0.000430 0.000000
0.000054 0.000440 0.000000
0.000047 0.000451 0.000000
0.000055 0.000458 0.000000
0.000053 0.000470 0.000000
0.000056 0.000483 0.000000
0.000049 0.000488 0.000000
0.000050 0.000498 0.000000
0.000544 0.000858 0.000000
0.000510 0.000828 0.000000
0.000576 0.000847 0.000000
0.000595 0.000847 0.000000
0.000606 0.000853 0.000000
0.000622 0.000861 0.000000
0.000618 0.000849 0.000000
0.000630 0.000858 0.000000
0.000647 0.000860 0.000000
0.000657 0.000855 0.000000
0.000060 0.000300 0.000000
0.000060 0.000310 0.000000
0.000061 0.000321 0.000000
0.000059 0.000330 0.000000
0.000062 0.000339 0.000000
0.000059 0.000350 0.000000
0.000062 0.000360 0.000000
0.000060 0.000370 0.000000
0.000063 0.000381 0.000000
0.000058 0.000390 0.000000
0.000063 0.000400 0.000000
0.000060 0.000409 0.000000
0.000064 0.000419 0.000000
0.000057 0.000430 0.000000
0.000066 0.000440 0.000000
0.000060 0.000449 0.000000
0.000066 0.000460 0.000000
0.000055 0.000472 0.000000
0.000064 0.000475 0.000000
0.000068 0.000486 0.000000
0.000058 0.000496 0.000000
0.000536 0.000853 0.000000
0.000554 0.000845 0.000000
0.000575 0.000837 0.000000
0.000585 0.000843 0.000000
0.000602 0.000838 0.000000
0.000612 0.000839 0.000000
0.000640 0.000845 0.000000
0.000630 0.000848 0.000000
0.000648 0.000848 0.000000
0.000658 0.000846 0.000000
0.000070 0.000300 0.000000
0.000070 0.000310 0.000000
0.000070 0.000319 0.000000
0.000070 0.000330 0.000000
0.000071 0.000340 0.000000
0.000068 0.000351 0.000000
0.000076 0.000356 0.000000
0.000067 0.000371 0.000000
0.000074 0.000376 0.000000
0.000069 0.000390 0.000000
0.000074 0.000400 0.000000
0.000068 0.000411 0.000000
0.000075 0.000421 0.000000
0.000068 0.000430 0.000000
0.000075 0.000439 0.000000
0.000066 0.000452 0.000000
0.000077 0.000459 0.000000
0.000073 0.000470 0.000000
0.000076 0.000486 0.000000
0.000068 0.000496 0.000000
0.000076 0.000496 0.000000
0.000439 0.000593 0.000000
0.000543 0.000841 0.000000
0.000565 0.000840 0.000000
0.000593 0.000831 0.000000
0.000604 0.000846 0.000000
0.000621 0.000835 0.000000
0.000628 0.000843 0.000000
0.000632 0.000833 0.000000
0.000648 0.000838 0.000000
0.000659 0.000836 0.000000
0.000080 0.000300 0.000000
0.000080 0.000310 0.000000
0.000080 0.000321 0.000000
0.000081 0.000330 0.000000
0.000080 0.000340 0.000000
0.000080 0.000349 0.000000
0.000076 0.000364 0.000000
0.000083 0.000369 0.000000
0.000081 0.000384 0.000000
0.000078 0.000390 0.000000
0.000087 0.000396 0.000000
0.000079 0.000409 0.000000
0.000084 0.000417 0.000000
0.000079 0.000430 0.000000
0.000087 0.000445 0.000000
0.000077 0.000447 0.000000
0.000086 0.000463 0.000000
0.000074 0.000470 0.000000
0.000087 0.000473 0.000000
0.000085 0.000482 0.000000
0.000084 0.000495 0.000000
0.000528 0.000847 0.000000
0.000504 0.000830 0.000000
0.000578 0.000827 0.000000
0.000587 0.000834 0.000000
0.000602 0.000828 0.000000
0.000612 0.000827 0.000000
0.000621 0.000825 0.000000
0.000640 0.000831 0.000000
0.000649 0.000829 0.000000
0.000660 0.000826 0.000000
0.000090 0.000300 0.000000
0.000090 0.000310 0.000000
0.000090 0.000319 0.000000
0.000090 0.000329 0.000000
0.000090 0.000340 0.000000
0.000092 0.000351 0.000000
0.000089 0.000359 0.000000
0.000092 0.000369 0.000000
0.000088 0.000379 0.000000
0.000092 0.000388 0.000000
0.000086 0.000406 0.000000
0.000094 0.000408 0.000000
0.000088 0.000425 0.000000
0.000096 0.000426 0.000000
0.000088 0.000436 0.000000
0.000097 0.000456 0.000000
0.000087 0.000453 0.000000
0.000097 0.000471 0.000000
0.000106 0.000480 0.000000
0.000089 0.000495 0.000000
0.000095 0.000495 0.000000
0.000440 0.000618 0.000000
0.000539 0.000835 0.000000
0.000526 0.000835 0.000000
0.000557 0.000836 0.000000
0.000594 0.000820 0.000000
0.000615 0.000819 0.000000
0.000631 0.000823 0.000000
0.000639 0.000820 0.000000
0.000650 0.000819 0.000000
0.000660 0.000816 0.000000
0.000100 0.000300 0.000000
0.000100 0.000310 0.000000
0.000100 0.000320 0.000000
0.000101 0.000331 0.000000
0.000100 0.000340 0.000000
0.000099 0.000349 0.000000
0.000101 0.000360 0.000000
0.000100 0.000372 0.000000
0.000101 0.000380 0.000000
0.000101 0.000393 0.000000
0.000100 0.000398 0.000000
0.000103 0.000409 0.000000
0.000100 0.000418 0.000000
0.000100 0.000435 0.000000
0.000110 0.000444 0.000000
0.000097 0.000445 0.000000
0.000107 0.000460 0.000000
0.000098 0.000467 0.000000
0.000095 0.000481 0.000000
0.000106 0.000491 0.000000
0.000101 0.000494 0.000000
0.000477 0.000792 0.000000
0.000482 0.000800 0.000000
0.000500 0.000824 0.000000
0.000586 0.000820 0.000000
0.000604 0.000816 0.000000
0.000613 0.000809 0.000000
0.000632 0.000813 0.000000
0.000625 0.000806 0.000000
0.000648 0.000811 0.000000
0.000659 0.000806 0.000000
0.000110 0.000300 0.000000
0.000110 0.000310 0.000000
0.000110 0.000320 0.000000
0.000110 0.000329 0.000000
0.000111 0.000339 0.000000
0.000110 0.000351 0.000000
0.000111 0.000360 0.000000
0.000110 0.000369 0.000000
0.000112 0.000378 0.000000
0.000110 0.000388 0.000000
0.000112 0.000400 0.000000
0.000111 0.000412 0.000000
0.000116 0.000423 0.000000
0.000107 0.000427 0.000000
0.000112 0.000434 0.000000
0.000106 0.000449 0.000000
0.000115 0.000461 0.000000
0.000111 0.000471 0.000000
0.000116 0.000480 0.000000
0.000111 0.000493 0.000000
0.000119 0.000492 0.000000
0.000450 0.000726 0.000000
0.000440 0.000638 0.000000
0.000535 0.000828 0.000000
0.000561 0.000827 0.000000
0.000553 0.000819 0.000000
[...]
POINT_DATA 6231
SCALARS density float 1
LOOKUP_TABLE default
4404.763613
4424.451795
4421.129158
4422.385450
4425.708946
4425.369231
4424.711559
4426.653718
4430.030203
4428.938877
4426.362269
4431.248173
4428.669609
4429.828761
4430.769093
4440.213631
4423.345337
4431.891972
4412.547494
4423.837232
4411.195494
4429.294837
4426.524302
4435.586380
4440.559337
4417.954402
4403.224772
4435.581816
4445.976505
4449.236789
4424.663757
4410.580626
4425.248180
4424.104757
4423.379065
4424.757193
4426.464048
4424.887365
4421.311150
4425.497907
4429.031916
4424.183533
4431.054218
4425.088111
4437.348186
4416.278301
4427.658300
4410.068412
4444.098401
4461.145347
4460.421308
4416.256664
4403.132753
4395.818356
4427.489584
4497.924155
4394.216482
4406.497133
4424.524176
4420.315828
4459.651433
4459.208747
4417.920210
4426.601496
4420.419633
4429.680888
4423.231909
4421.461313
4430.837028
4439.815734
4422.140074
4430.443676
4428.188140
4434.418671
4417.545342
4439.602651
4414.979801
4476.268969
4399.426949
4453.831902
4351.708217
4449.495917
4420.653023
4416.655621
4430.786622
4407.537280
4540.571868
4344.516882
4373.971520
4433.538641
4415.641860
4404.297759
4402.294775
4420.111713
4424.910467
4427.110211
4426.217889
4430.894922
4438.045196
4420.483154
4420.739432
4419.857259
4438.892435
4410.992703
4437.585189
4418.213478
4446.425654
4402.975654
4431.122395
4390.246644
4459.305878
4367.824744
4557.361444
4370.519509
4431.905761
4459.096864
4430.148403
4479.810002
4357.395977
4488.503564
4449.673197
4392.558653
4501.275041
4456.321594
4427.353417
4432.698082
4432.722155
4432.765977
4425.011551
4426.055133
4427.453170
4444.586203
4424.756919
4434.989297
4410.789899
4450.612851
4402.449967
4444.250241
4413.768145
4450.805193
4386.140300
4508.830906
4307.672858
4419.771797
4383.913952
4507.437414
4424.201545
4378.732537
4460.333260
4471.259385
4451.846591
4377.019492
4482.322596
4419.295868
4428.859734
4434.521324
4428.444941
4416.379859
4439.773725
4427.752544
4439.014238
4410.701425
4433.451415
4404.381639
4442.119721
4420.242593
4438.997066
4403.444519
4459.465486
4361.799943
4480.565076
4358.238748
4477.273628
4361.565342
4536.213441
4383.089346
4441.711124
4426.069415
4459.156366
4372.369305
4416.204798
4434.916144
4392.084427
4399.426300
4400.979721
4414.676189
4424.876804
4437.791766
4433.623141
4444.620502
4409.015762
4454.035670
4400.384640
4451.231550
4416.097994
4449.139427
4408.334402
4443.320802
4423.000136
4436.915620
4421.483383
4471.354769
4400.823053
4519.432642
4372.887476
4480.560201
4431.922783
4418.504076
4389.527142
4419.585507
4454.169203
4456.180056
4413.940927
4403.837181
4439.743733
4432.853331
4426.068490
4424.258820
4432.798714
4416.205029
4424.444531
4434.482282
4431.801583
4425.076654
4453.778324
4398.040505
4440.847204
4397.038387
4429.636748
4412.532717
4435.766697
4438.257153
4456.970722
4438.212929
4459.553125
4448.181465
4412.759354
4387.954155
4603.132501
4454.938827
4438.468473
4463.590478
4473.483823
4418.889822
4465.001060
4424.850301
4447.682735
4413.344245
4426.611766
4429.805886
4421.015598
4437.353568
4420.233881
4426.943780
4420.793391
4441.270709
4456.766942
4443.062376
4400.292542
4436.436160
4406.671096
4442.500774
4466.327955
4390.734079
4453.304249
4453.595885
4357.220336
4465.971755
4411.328012
4434.629922
4414.513909
4422.825599
4435.389474
4387.904131
4454.603694
4421.179916
4421.811808
4432.311472
4436.030461
4423.180311
4428.798092
4433.608247
4422.935189
4413.926565
4435.967471
4417.780635
4436.329922
4414.896025
4418.128583
4456.797774
4409.571971
4427.716478
4467.896173
4417.659313
4377.060467
4442.680206
4436.958904
4424.926715
4426.429493
4417.329534
4479.160900
4433.850297
4425.085501
4482.525411
4423.826759
4399.502925
4449.401410
4447.389832
4420.087456
4420.648728
4431.159985
4434.124351
4422.233561
4431.606803
4433.904287
4438.614950
4414.534532
4419.740025
4427.026396
4445.561732
4445.774358
4427.863451
4423.233660
4386.762382
4446.684278
4448.638475
4417.242927
4471.249650
4413.617346
4436.469498
4420.105291
4426.438190
4429.195525
4421.346309
4408.523216
4466.099603
4403.242407
4392.852585
4477.365135
4439.814224
4420.867252
4433.559643
4426.132855
4426.483782
4442.614953
4411.051141
4415.553027
4446.672403
4430.689699
4435.449745
4417.956455
4404.784560
4454.601614
4399.524017
4435.678727
4432.311327
4443.976444
4462.988721
4387.295196
4467.425594
4398.144662
4412.321675
4425.519789
4450.749097
4440.204847
4392.234746
4433.065975
4462.452002
4456.208542
4425.430895
4425.598840
4447.250257
4426.578011
4424.689619
4434.509145
4411.448829
4445.202183
4440.146035
4406.987435
4425.325751
4417.864001
4443.908692
4439.658040
4424.754415
4428.956979
4438.740919
4414.616343
4374.410182
4435.675816
4396.595157
4415.770161
4437.990156
4389.398632
4445.256686
4417.171418
4423.420452
4449.971662
4455.862783
4380.626366
4341.298512
4449.468364
4396.265093
4411.605494
4432.338069
4436.528147
4431.883211
4423.863836
4430.708362
4414.557952
4425.933004
4443.242045
4431.101101
4407.086800
4402.912305
4426.479563
4444.749325
4419.058035
4420.348834
4447.773029
4418.495089
4443.631845
4500.140758
4418.219117
4425.186734
4435.911092
4406.260289
4418.122122
4433.703161
4420.818886
4426.463596
4486.920734
4473.700090
4475.956694
4445.819750
4433.482757
4434.722305
4421.868290
4437.109167
4416.054073
4436.534730
4442.885713
4401.094989
4439.656698
4427.204015
4447.174329
4424.088715
4421.027624
4413.432669
4438.547294
4378.538408
4413.556865
4504.712256
4563.606400
4387.665215
4378.087615
4411.673916
4416.139410
4465.709971
4460.276513
4384.635740
4446.363164
4419.424217
4409.880430
4405.302505
4449.766122
4433.191227
4437.758360
4437.247113
4429.114773
4427.115203
4416.053517
4417.511232
4443.194830
4431.898486
4399.874494
4439.790869
4409.519205
4444.947403
4400.257079
4454.682904
4425.687791
4486.154629
4352.840009
4328.348012
4504.261070
4394.899563
4419.119144
4434.094167
4416.778952
4479.574684
4460.230289
4419.199753
4419.658399
4399.949083
4417.246310
4410.686694
4431.934955
4427.180589
4421.056807
4425.404536
4440.786362
4429.368307
4426.635906
4418.164048
4425.972045
4444.766525
4429.978356
4405.593771
4451.897510
4412.164426
4435.122771
4419.973894
4401.561053
4501.969894
4491.084679
4415.672787
4399.923603
4428.930744
4441.175062
4429.833188
4399.675308
4436.337974
4446.197131
4422.869120
4407.412043
4443.891323
4425.546918
4432.850436
4429.841280
4445.380558
4435.964228
4417.519250
4430.679579
4433.821773
4428.037278
4429.195502
4410.382488
4429.257476
4444.583255
4412.112379
4451.740709
4400.786484
4436.917233
4415.210945
4462.944193
4340.386140
4362.402282
4429.528864
4428.366153
4429.281928
4401.047865
4394.314518
4437.568588
4435.590956
4440.872065
4460.851615
4421.849134
4429.556747
4436.891792
4429.533795
4414.019435
4435.161906
4440.365630
4432.706727
4417.963052
4433.227824
4427.073352
4445.416714
4419.858597
4425.721118
4417.909472
4435.708299
4407.900491
4475.526775
4332.043594
4472.699067
4387.728579
4449.322254
4395.258909
4418.834951
4422.210185
4443.735352
4462.054062
4389.979704
4456.105864
4463.793722
4400.848620
4439.173054
4427.561475
4431.228518
4421.566890
4442.495711
4443.397469
4415.160455
4429.986410
4430.245201
4433.297854
4404.775587
4437.174753
4409.687621
4440.918042
4411.638792
4440.501729
4400.571788
4432.978176
4426.472180
4488.046205
4403.957108
4551.313644
4388.694362
4469.132945
4445.489569
4426.437042
4441.581140
4434.123465
4405.895323
4414.399866
4421.063191
4446.233955
4394.058632
4429.521903
4430.614212
4424.589089
4409.223284
4442.699562
4441.433533
4411.378836
4430.944375
4425.476063
4432.181828
4413.680956
4449.088557
4395.957702
4442.682518
4427.413792
4437.162872
4424.726266
4467.885542
4379.939342
4407.088849
4513.796014
4412.754014
4423.166334
4448.389081
4414.140438
4377.307810
4417.979755
4426.570462
4459.782457
4413.354205
4373.054557
4428.107094
4435.168681
4431.457775
4434.672618
4438.024817
4406.906086
4436.276705
4436.579899
4402.230421
4454.096783
4410.940635
4424.903991
4444.783605
4419.524064
4403.409131
4456.637264
4384.690691
4470.864381
4389.272062
4470.120371
4418.430322
4438.309409
4411.644819
4392.551576
4427.144406
4438.971460
4416.160177
4455.504740
4337.891389
4386.494018
4451.749357
4428.185923
4428.659530
4421.019411
4431.967510
4400.816039
4450.028406
4421.944735
4430.644760
4448.240838
4405.425977
4435.331632
4418.035875
4441.470226
4428.379984
4428.468034
4435.904822
4406.962867
4417.530123
4406.447078
4449.220533
4426.099961
4428.892010
4456.369790
4470.608017
4410.951620
4438.305639
4508.052571
4379.200699
4513.823087
4362.879573
4439.759272
4430.522508
4433.740755
4430.868132
4434.012099
4435.644304
4436.186016
4400.936141
4410.719277
4438.441250
4401.666467
4441.225165
4417.685520
4405.426940
4460.513005
4417.658217
4405.416679
4439.782388
4433.952250
4418.782460
4408.349084
4421.760909
4431.696252
4462.762391
4413.651700
4450.506079
4445.785675
4408.926008
4361.186366
4471.038516
4445.513673
4439.885064
4428.106089
4425.609349
4424.507723
4414.233458
4420.419397
4409.218327
4456.574315
4446.541995
4394.362006
4453.206995
4387.597727
4446.903968
4417.421030
4413.353349
4390.495214
4451.622408
4401.143131
4429.567461
4452.732740
4511.562544
4423.361169
4418.936548
4418.792715
4347.924566
4449.747171
4447.093389
4474.308820
4403.645227
4453.235349
4431.002597
4463.801186
4433.354789
4423.085943
4439.279413
4437.263014
4431.893037
4445.130058
4394.284981
4414.213878
4420.678401
4442.268286
4428.558142
4445.602566
4421.706204
4420.763414
4439.237581
4448.534434
4389.570803
4484.872143
4364.734070
4412.634814
4430.550244
4400.570045
4469.905475
4420.254397
4406.030771
4421.020741
4428.926021
4436.132309
4424.591229
4410.954424
4413.826340
4425.611242
4429.424466
4422.711365
4412.955353
4416.620935
4421.521981
4441.904063
4430.454553
4436.622184
4386.078283
4421.973928
4397.853779
4426.309336
4431.684278
4412.230509
4437.259292
4429.326916
4428.481286
4383.288517
4462.172218
4415.663182
4624.462146
4543.113115
4381.736452
4445.746379
4431.410809
4446.240392
4430.628210
4484.435745
4400.732282
4440.450599
4427.288316
4437.868002
4428.298238
4436.337558
4453.828276
4409.768353
4442.239738
4388.067159
4431.393501
4440.814893
4426.876363
4438.243815
4421.227099
4421.674240
4417.266496
4438.147185
4402.661009
4464.382778
4418.067308
4430.603181
4425.097911
4411.490192
4402.253509
4438.531776
4470.377318
4442.525349
4429.791647
4425.251565
4448.328277
4379.427759
4431.580528
4431.837936
4424.915971
4424.384804
4414.232221
4423.957751
4434.986530
4415.925274
4452.367386
4424.877898
4405.053678
4401.152281
4440.874774
4421.812428
4439.683566
4414.919350
4447.520788
4401.134514
4433.341563
4431.448495
4428.335311
4407.488936
4360.936150
4415.900553
4386.333097
4457.322519
4435.081987
4423.630141
4449.083518
4409.621162
4445.477344
4415.906486
4429.947083
4421.379643
4438.699275
4446.974835
4428.797015
4442.602659
4400.614666
4445.468664
4394.624386
4444.670463
4451.033450
4398.256911
4438.343651
4391.549155
4477.439727
4380.105530
4437.085124
4357.423952
4387.395594
4475.920612
4455.207355
4408.014980
4416.278032
4428.839081
4441.631054
4437.972763
4426.104652
4441.008772
4409.293696
4437.001694
4453.700837
4431.412624
4434.790361
4418.051804
4412.764470
4426.090991
4416.574322
4447.425000
4400.032888
4442.663904
4401.713010
4416.340967
4417.048161
4454.295428
4390.476915
4436.551674
4417.657679
4410.246071
4496.212500
4461.578315
4435.234812
4444.462040
4465.701597
4443.695680
4412.694290
4480.132929
4460.647082
4395.220671
4436.918487
4400.996170
4425.769032
4407.369526
4429.127715
4430.513345
4437.967031
4440.520969
4446.245887
4413.107724
4452.718969
4397.484680
4456.995815
4420.567162
4437.265764
4419.299146
4420.186927
4444.868703
4420.158963
4434.157615
4394.184851
4449.717755
4390.953505
4370.327671
4433.900140
4444.534908
4445.481318
4464.481745
4456.854165
4391.651833
4441.205259
4421.878811
4467.094666
4329.339858
4427.594628
4433.461204
4428.674204
4429.735553
4406.854774
4425.135304
4436.888012
4394.218974
4451.881170
4392.369163
4421.864990
4442.377069
4419.360319
4421.221231
4430.085599
4411.265702
4443.036457
4416.435841
4382.633137
4465.829610
4468.289155
4451.118460
4397.095051
4394.129195
4453.257951
4423.410625
4400.011727
4404.007029
4442.501793
4455.382567
4451.569190
4420.452209
4441.695292
4429.198334
4435.262054
4446.505054
4428.732124
4437.977513
4398.997180
4449.179872
4408.255327
4436.452618
4393.041219
4460.888468
4408.839168
4430.279299
4391.101274
4434.002021
4444.299803
4472.473770
4344.746791
4471.713140
4458.441835
4485.132380
4485.883665
4430.863219
4465.077007
4445.749555
4430.840242
4401.829551
4355.692425
4395.342469
4436.776563
4432.124938
4421.210510
4424.349840
4408.980644
4422.472915
4425.333586
4424.702381
4401.786548
4410.142873
4448.485566
4395.660124
4439.504298
4381.634691
4470.804534
4409.545476
4432.470065
4377.869784
4448.824364
4296.173772
4485.992752
4481.489164
4422.595686
4533.253985
4461.605078
4427.270899
4439.914608
4413.158700
4493.202428
4373.019047
4485.240768
4448.197519
4423.110790
4431.406443
4443.892587
4430.047468
4440.170660
4428.567996
4428.466120
4431.097063
4459.622988
4409.542859
4392.948929
4432.282866
4430.303873
4415.220102
4399.568498
4464.438126
4366.430502
4471.598087
4451.747486
4510.836562
4432.630571
4424.000472
4428.574592
4456.701741
4434.313941
4423.275026
4447.031824
4443.407155
4396.494246
4382.868313
4455.263172
4421.843149
4433.155346
4406.583040
4428.101177
4425.568949
4446.489639
4400.321301
4388.749019
4375.177730
4457.071038
4448.977312
4433.266491
4396.738049
4452.887403
4431.286354
4430.640555
4450.794921
4444.809668
4451.807895
4470.095448
4678.395389
4471.936282
4396.833871
4437.738162
4441.101873
4455.189772
4445.996783
4450.058647
4451.107648
4441.047384
4416.814776
4424.361612
4437.102611
4429.850087
4436.424363
4395.469609
4400.245555
4456.693384
4459.670841
4455.542425
4408.228313
4388.296874
4425.795653
4437.938928
4435.615117
4383.560400
4432.706314
4428.491097
4395.253680
4431.384356
4424.387659
4395.641910
4421.877264
4495.498609
4426.506060
4487.534086
4426.771327
4459.225059
4422.626781
4455.265530
4443.719253
4410.916775
4424.907888
4425.780414
4404.256101
4420.019346
4449.405434
4407.291818
4399.316689
4450.909624
4394.449094
4456.399688
4420.905719
4428.359196
4401.390754
4439.169470
4453.104406
4435.156437
4385.062331
4424.361940
4473.015247
4455.665834
4426.597973
4453.047915
4450.376496
4487.470464
4442.467111
4447.451364
4453.118756
4379.890700
4374.719586
4422.821899
4397.948759
4423.495105
4417.085492
4447.921213
4434.846894
4417.281224
4430.895666
4431.148307
4423.686942
4427.365110
4439.778076
4407.278682
4414.226767
4425.636323
4394.157070
4452.234696
4403.674881
4436.498173
4328.609062
4432.709351
4502.017609
4407.731296
4457.030711
4468.915002
4468.432753
4437.173103
4488.984681
4454.876637
4477.874934
4465.755898
4472.862885
4407.234551
4420.289004
4434.048572
4405.640977
4422.052701
4417.296049
4404.776894
4416.815913
4411.173846
4437.810948
4397.563855
4421.591494
4437.446268
4390.439219
4440.987147
4439.133596
4427.115812
4409.833043
4407.778027
4456.154400
4425.572529
4475.679406
4480.788576
4392.346011
4457.699392
4452.028461
4437.634454
4442.441607
4448.879183
4379.179696
4411.325144
4414.845825
4422.312738
4432.489140
4426.947586
4420.885777
4449.716191
4419.659066
4455.471553
4426.758762
4418.192027
4419.610846
4440.326538
4433.617713
4403.339608
4414.355273
4408.805553
4439.868803
4462.383790
4394.172840
4420.279300
4457.778408
4406.637013
4429.342942
4452.031392
4484.860348
4396.300152
4432.977817
4400.621161
4429.566929
4474.215235
4434.471880
4417.462501
4423.996423
4419.932538
4425.697184
4421.036810
4405.358756
4444.056154
4391.277549
4452.504329
4415.514441
4399.443014
4377.319289
4442.413787
4446.112998
4411.865591
4420.805832
4432.582446
4392.526080
4425.601883
4404.959596
4334.203580
4402.914229
4436.653487
4452.726673
4473.828911
4434.772367
4476.142556
4446.735293
4395.194640
4441.403741
4364.788179
4419.247357
4423.644869
4422.594534
4428.351108
4431.515110
4414.812693
4445.217399
4422.594310
4428.027272
4423.714278
4436.558075
4424.965354
4410.274331
4400.725834
4420.154052
4414.166333
4413.268073
4420.051893
4459.113225
4419.008554
4470.331737
4540.364562
4496.693599
4464.885988
4429.598636
4453.692428
4447.753296
4421.259074
4423.674116
4459.950536
4396.666461
4413.730903
4420.699204
4432.802684
4411.540035
4423.069455
4435.824632
4389.668289
4435.939323
4421.441323
4429.236886
4437.649464
4404.977193
4420.098186
4427.076774
4436.316781
4437.580607
4407.471048
4445.855889
4406.037647
4435.089314
4398.374529
4497.505964
4487.355658
4472.054993
4463.024775
4458.788758
4450.244539
4466.892759
4396.571416
4406.960548
4413.927039
4425.881577
4419.239664
4419.613108
4436.106480
4410.857657
4438.718782
4434.254511
4421.610571
4420.217241
4419.415013
4435.849121
4427.539665
4447.145754
4418.871267
4423.505854
4415.649479
4429.434196
4438.971842
4403.097393
4468.023831
4426.134592
4447.320905
4455.759840
4468.754208
4439.152043
4452.235401
4458.640591
4451.808931
4445.272655
4431.406919
4434.669931
4480.224575
4425.101489
4430.109493
4427.655135
4421.873437
4409.131629
4432.784917
4419.879721
4433.761636
4391.707742
4437.959496
4426.178903
4395.720365
4446.117961
4427.517519
4427.888626
4438.515343
4447.888573
4416.651587
4452.969663
4417.246012
4455.724778
4464.138386
4441.939293
4478.538095
4462.512747
4422.667700
4462.604871
4476.563905
4474.106652
4414.885269
4377.582660
4428.155729
4428.976698
4415.320782
4432.968470
4435.013307
4408.149901
4429.775294
4425.573608
4413.148143
4437.001918
4407.017627
4428.203445
4431.774931
4412.010784
4427.932239
4401.447580
4429.697868
4459.563218
4424.732719
4456.396674
4425.662354
4453.976135
4456.871794
4450.190338
4462.012392
4432.314448
4381.262986
4470.528464
4455.185330
4398.689591
4444.724074
4426.702812
4431.919242
4438.320080
4414.051735
4409.966426
4423.588259
4415.899400
4414.948265
4422.700768
4423.876341
4419.725207
4424.464490
4422.407158
4425.625274
4425.704274
4431.175658
4384.808651
4456.533207
4437.820928
4417.747760
4452.155691
4457.896548
4443.094452
4435.049845
4446.562937
4419.053063
4452.504093
4444.908372
4505.749539
4417.005151
4455.293519
4441.151943
4416.301290
4433.288687
4429.855704
4425.911998
4440.218655
4418.434064
4431.939865
4440.611749
4408.753552
4424.075673
4414.505980
4420.445989
4447.332376
4406.607158
4440.325021
4435.864197
4446.682549
4458.405531
4433.967172
4460.408431
4424.327278
4447.883492
4457.679240
4427.639608
4450.912526
4483.040335
4447.413304
4479.098426
4432.038677
4351.825624
4430.953512
4427.963230
4424.992438
4418.337871
4429.263055
4403.202476
4452.012168
4415.141732
4434.318838
4431.800116
4394.100151
4435.310704
4423.402890
4411.705471
4432.524265
4421.660731
4421.725648
4422.516304
4410.521100
4434.006528
4472.035120
4402.665054
4429.119359
4423.957765
4457.020116
4441.233329
4404.366484
4407.629788
4443.054229
4458.433885
4507.345789
4429.647253
4425.350853
4448.304752
4408.829032
4435.242172
4419.278987
4421.660278
4402.977306
4407.844838
4444.575650
4425.803118
4442.902531
4427.479894
4408.257987
4433.793537
4423.256578
4418.404654
4432.827424
4420.093680
4425.164638
4419.253999
4453.514765
4448.554729
4415.501718
4437.960862
4445.941521
4439.114949
4428.285869
4429.002971
4416.420356
4424.221027
4429.659414
4423.026163
4406.258831
4438.248163
4418.627129
4443.476067
4414.822713
4427.987413
4441.351333
4392.032998
4429.714797
4414.841096
4444.684639
4422.415122
4409.323553
4423.161702
4441.815466
4430.060311
4435.150071
4430.879611
4436.333669
4457.732568
4409.159328
4434.612449
4405.760973
4456.484987
4436.944372
4492.368642
4460.786277
4442.351727
4479.108261
4428.895655
4425.908675
4434.296838
4425.891707
4437.176490
4410.483674
4449.588993
4417.132400
4430.901262
4443.244485
4443.132273
4421.119410
4418.246900
4436.027861
4428.968078
4408.300792
4434.630708
4432.414946