# vtk DataFile Version 2.0
mfree iwf
ASCII

DATASET UNSTRUCTURED_GRID
POINTS 6231 float
0.000000 0.000300 0.000000
0.000000 0.000310 0.000000
0.000000 0.000320 0.000000
0.000000 0.000330 0.000000
0.000000 0.000340 0.000000
0.000001 0.000350 0.000000
0.000001 0.000360 0.000000
0.000001 0.000370 0.000000
0.000001 0.000380 0.000000
0.000001 0.000390 0.000000
0.000001 0.000401 0.000000
0.000001 0.000410 0.000000
0.000001 0.000421 0.000000
0.000001 0.000431 0.000000
0.000002 0.000441 0.000000
0.000002 0.000451 0.000000
0.000002 0.000461 0.000000
0.000002 0.000471 0.000000
0.000002 0.000480 0.000000
0.000002 0.000492 0.000000
0.000006 0.000501 0.000000
0.000300 0.000645 0.000000
0.000316 0.000723 0.000000
0.000302 0.000662 0.000000
0.000321 0.000737 0.000000
0.000332 0.000757 0.000000
0.000362 0.000796 0.000000
0.000367 0.000800 0.000000
0.000378 0.000806 0.000000
0.000389 0.000815 0.000000
0.000419 0.000838 0.000000
0.000010 0.000300 0.000000
0.000010 0.000310 0.000000
0.000010 0.000320 0.000000
0.000010 0.000330 0.000000
0.000010 0.000340 0.000000
0.000011 0.000350 0.000000
0.000011 0.000360 0.000000
0.000011 0.000370 0.000000
0.000011 0.000380 0.000000
0.000011 0.000390 0.000000
0.000011 0.000400 0.000000
0.000011 0.000411 0.000000
0.000011 0.000420 0.000000
0.000012 0.000430 0.000000
0.000012 0.000440 0.000000
0.000012 0.000451 0.000000
0.000012 0.000460 0.000000
0.000012 0.000472 0.000000
0.000013 0.000478 0.000000
0.000010 0.000492 0.000000
0.000013 0.000498 0.000000
0.000346 0.000769 0.000000
0.000354 0.000779 0.000000
0.000360 0.000786 0.000000
0.000367 0.000790 0.000000
0.000382 0.000799 0.000000
0.000390 0.000805 0.000000
0.000402 0.000813 0.000000
0.000410 0.000822 0.000000
0.000414 0.000826 0.000000
0.000416 0.000833 0.000000
0.000020 0.000300 0.000000
0.000020 0.000310 0.000000
0.000020 0.000320 0.000000
0.000020 0.000330 0.000000
0.000020 0.000340 0.000000
0.000021 0.000351 0.000000
0.000020 0.000360 0.000000
0.000021 0.000370 0.000000
0.000020 0.000380 0.000000
0.000021 0.000390 0.000000
0.000021 0.000400 0.000000
0.000022 0.000410 0.000000
0.000020 0.000420 0.000000
0.000023 0.000431 0.000000
0.000020 0.000440 0.000000
0.000024 0.000451 0.000000
0.000021 0.000460 0.000000
0.000022 0.000470 0.000000
0.000021 0.000481 0.000000
0.000024 0.000494 0.000000
0.000020 0.000497 0.000000
0.000333 0.000738 0.000000
0.000345 0.000761 0.000000
0.000352 0.000772 0.000000
0.000360 0.000775 0.000000
0.000371 0.000777 0.000000
0.000378 0.000791 0.000000
0.000399 0.000805 0.000000
0.000409 0.000815 0.000000
0.000421 0.000817 0.000000
0.000428 0.000822 0.000000
0.000030 0.000300 0.000000
0.000030 0.000310 0.000000
0.000030 0.000320 0.000000
0.000031 0.000331 0.000000
0.000030 0.000340 0.000000
0.000031 0.000349 0.000000
0.000030 0.000360 0.000000
0.000031 0.000370 0.000000
0.000030 0.000380 0.000000
0.000032 0.000391 0.000000
0.000030 0.000400 0.000000
0.000032 0.000411 0.000000
0.000031 0.000420 0.000000
0.000032 0.000430 0.000000
0.000031 0.000440 0.000000
0.000031 0.000450 0.000000
0.000032 0.000459 0.000000
0.000037 0.000473 0.000000
0.000030 0.000478 0.000000
0.000033 0.000488 0.000000
0.000032 0.000497 0.000000
0.000063 0.000500 0.000000
0.000350 0.000757 0.000000
0.000360 0.000764 0.000000
0.000380 0.000784 0.000000
0.000392 0.000785 0.000000
0.000390 0.000794 0.000000
0.000400 0.000794 0.000000
0.000407 0.000801 0.000000
0.000417 0.000807 0.000000
0.000434 0.000814 0.000000
0.000040 0.000300 0.000000
0.000040 0.000310 0.000000
0.000040 0.000321 0.000000
0.000040 0.000329 0.000000
0.000040 0.000340 0.000000
0.000040 0.000351 0.000000
0.000041 0.000360 0.000000
0.000041 0.000369 0.000000
0.000041 0.000380 0.000000
0.000039 0.000390 0.000000
0.000042 0.000399 0.000000
0.000041 0.000410 0.000000
0.000042 0.000420 0.000000
0.000040 0.000431 0.000000
0.000043 0.000439 0.000000
0.000043 0.000450 0.000000
0.000043 0.000460 0.000000
0.000037 0.000470 0.000000
0.000045 0.000478 0.000000
0.000043 0.000496 0.000000
0.000040 0.000498 0.000000
0.000299 0.000544 0.000000
0.000361 0.000754 0.000000
0.000372 0.000765 0.000000
0.000378 0.000769 0.000000
0.000383 0.000777 0.000000
0.000401 0.000782 0.000000
0.000417 0.000796 0.000000
0.000426 0.000797 0.000000
0.000427 0.000807 0.000000
0.000438 0.000807 0.000000
0.000050 0.000300 0.000000
0.000050 0.000310 0.000000
0.000050 0.000319 0.000000
0.000049 0.000331 0.000000
0.000052 0.000340 0.000000
0.000050 0.000349 0.000000
0.000052 0.000360 0.000000
0.000049 0.000371 0.000000
0.000053 0.000379 0.000000
0.000050 0.000390 0.000000
0.000053 0.000400 0.000000
0.000049 0.000410 0.000000
0.000054 0.000420 0.000000
0.000050 0.000430 0.000000
0.000054 0.000440 0.000000
0.000047 0.000451 0.000000
0.000055 0.000459 0.000000
0.000053 0.000470 0.000000
0.000056 0.000483 0.000000
0.000049 0.000488 0.000000
0.000050 0.000498 0.000000
0.000338 0.000754 0.000000
0.000318 0.000714 0.000000
0.000372 0.000757 0.000000
0.000389 0.000767 0.000000
0.000396 0.000775 0.000000
0.000409 0.000790 0.000000
0.000410 0.000778 0.000000
0.000417 0.000785 0.000000
0.000433 0.000795 0.000000
0.000443 0.000797 0.000000
0.000060 0.000300 0.000000
0.000060 0.000310 0.000000
0.000061 0.000321 0.000000
0.000060 0.000329 0.000000
0.000061 0.000339 0.000000
0.000059 0.000351 0.000000
0.000062 0.000360 0.000000
0.000060 0.000369 0.000000
0.000063 0.000381 0.000000
0.000058 0.000390 0.000000
0.000064 0.000399 0.000000
0.000059 0.000409 0.000000
0.000065 0.000419 0.000000
0.000058 0.000431 0.000000
0.000066 0.000440 0.000000
0.000060 0.000449 0.000000
0.000066 0.000460 0.000000
0.000055 0.000471 0.000000
0.000065 0.000475 0.000000
0.000068 0.000486 0.000000
0.000059 0.000496 0.000000
0.000333 0.000748 0.000000
0.000350 0.000748 0.000000
0.000375 0.000751 0.000000
0.000385 0.000757 0.000000
0.000396 0.000763 0.000000
0.000409 0.000770 0.000000
0.000429 0.000778 0.000000
0.000426 0.000784 0.000000
0.000438 0.000787 0.000000
0.000448 0.000789 0.000000
0.000070 0.000300 0.000000
0.000070 0.000310 0.000000
0.000070 0.000319 0.000000
0.000070 0.000330 0.000000
0.000072 0.000342 0.000000
0.000069 0.000349 0.000000
0.000073 0.000359 0.000000
0.000068 0.000372 0.000000
0.000073 0.000378 0.000000
0.000070 0.000390 0.000000
0.000074 0.000401 0.000000
0.000068 0.000411 0.000000
0.000075 0.000422 0.000000
0.000067 0.000429 0.000000
0.000075 0.000438 0.000000
0.000066 0.000452 0.000000
0.000077 0.000459 0.000000
0.000073 0.000470 0.000000
0.000076 0.000486 0.000000
0.000068 0.000496 0.000000
0.000076 0.000496 0.000000
0.000299 0.000530 0.000000
0.000345 0.000739 0.000000
0.000365 0.000745 0.000000
0.000392 0.000750 0.000000
0.000403 0.000761 0.000000
0.000415 0.000762 0.000000
0.000421 0.000771 0.000000
0.000430 0.000769 0.000000
0.000442 0.000778 0.000000
0.000453 0.000780 0.000000
0.000080 0.000300 0.000000
0.000080 0.000310 0.000000
0.000080 0.000321 0.000000
0.000081 0.000330 0.000000
0.000080 0.000339 0.000000
0.000081 0.000350 0.000000
0.000080 0.000362 0.000000
0.000080 0.000369 0.000000
0.000082 0.000382 0.000000
0.000078 0.000390 0.000000
0.000084 0.000398 0.000000
0.000079 0.000409 0.000000
0.000084 0.000417 0.000000
0.000079 0.000431 0.000000
0.000087 0.000446 0.000000
0.000077 0.000447 0.000000
0.000086 0.000463 0.000000
0.000075 0.000470 0.000000
0.000087 0.000473 0.000000
0.000086 0.000483 0.000000
0.000084 0.000495 0.000000
0.000327 0.000738 0.000000
0.000312 0.000714 0.000000
0.000378 0.000742 0.000000
0.000388 0.000746 0.000000
0.000404 0.000752 0.000000
0.000416 0.000753 0.000000
0.000425 0.000758 0.000000
0.000438 0.000767 0.000000
0.000447 0.000770 0.000000
0.000457 0.000771 0.000000
0.000090 0.000300 0.000000
0.000090 0.000310 0.000000
0.000090 0.000320 0.000000
0.000090 0.000330 0.000000
0.000090 0.000341 0.000000
0.000091 0.000351 0.000000
0.000090 0.000359 0.000000
0.000091 0.000370 0.000000
0.000089 0.000380 0.000000
0.000092 0.000389 0.000000
0.000092 0.000403 0.000000
0.000091 0.000411 0.000000
0.000089 0.000424 0.000000
0.000097 0.000427 0.000000
0.000088 0.000435 0.000000
0.000097 0.000456 0.000000
0.000087 0.000453 0.000000
0.000097 0.000471 0.000000
0.000106 0.000480 0.000000
0.000089 0.000495 0.000000
0.000095 0.000495 0.000000
0.000299 0.000560 0.000000
0.000343 0.000734 0.000000
0.000332 0.000728 0.000000
0.000359 0.000742 0.000000
0.000402 0.000742 0.000000
0.000415 0.000746 0.000000
0.000432 0.000755 0.000000
0.000440 0.000756 0.000000
0.000451 0.000760 0.000000
0.000461 0.000762 0.000000
0.000100 0.000300 0.000000
0.000100 0.000310 0.000000
0.000100 0.000320 0.000000
0.000100 0.000331 0.000000
0.000101 0.000340 0.000000
0.000100 0.000349 0.000000
0.000101 0.000360 0.000000
0.000101 0.000371 0.000000
0.000100 0.000379 0.000000
0.000102 0.000391 0.000000
0.000098 0.000399 0.000000
0.000103 0.000408 0.000000
0.000101 0.000417 0.000000
0.000100 0.000436 0.000000
0.000110 0.000443 0.000000
0.000097 0.000445 0.000000
0.000107 0.000460 0.000000
0.000098 0.000467 0.000000
0.000095 0.000481 0.000000
0.000106 0.000491 0.000000
0.000101 0.000494 0.000000
0.000303 0.000668 0.000000
0.000304 0.000675 0.000000
0.000311 0.000707 0.000000
0.000393 0.000736 0.000000
0.000408 0.000738 0.000000
0.000422 0.000740 0.000000
0.000432 0.000746 0.000000
0.000440 0.000744 0.000000
0.000452 0.000753 0.000000
0.000464 0.000753 0.000000
0.000110 0.000300 0.000000
0.000110 0.000310 0.000000
0.000110 0.000321 0.000000
0.000110 0.000330 0.000000
0.000110 0.000340 0.000000
0.000111 0.000351 0.000000
0.000111 0.000361 0.000000
0.000110 0.000369 0.000000
0.000111 0.000379 0.000000
0.000110 0.000390 0.000000
0.000112 0.000400 0.000000
0.000111 0.000413 0.000000
0.000115 0.000423 0.000000
0.000106 0.000427 0.000000
0.000113 0.000434 0.000000
0.000107 0.000450 0.000000
0.000116 0.000461 0.000000
0.000111 0.000471 0.000000
0.000116 0.000480 0.000000
0.000111 0.000493 0.000000
0.000119 0.000492 0.000000
0.000300 0.000602 0.000000
0.000300 0.000580 0.000000
0.000341 0.000724 0.000000
0.000367 0.000735 0.000000
0.000363 0.000727 0.000000
[...]
POINT_DATA 6231
SCALARS density float 1
LOOKUP_TABLE default
4400.017053
4423.298579
4419.464425
4422.932418
4426.002961
4425.448643
4425.614346
4425.628462
4427.273083
4428.022055
4424.983837
4428.690879
4429.179788
4430.125174
4430.356596
4440.291333
4422.665630
4432.294031
4412.973560
4423.489254
4411.369434
4476.223412
4421.178455
4433.974092
4438.917538
4435.376457
4405.995171
4444.661017
4440.878958
4450.798792
4418.423260
4403.937164
4420.215964
4423.134428
4425.269066
4420.308543
4425.206099
4424.902092
4419.416056
4427.878876
4432.932412
4428.807174
4432.561614
4426.093038
4435.806148
4415.398114
4429.012449
4409.925764
4442.855522
4460.710874
4460.467608
4415.698669
4393.548929
4378.768169
4406.082617
4482.602452
4405.776727
4403.629077
4421.956023
4413.188637
4432.993782
4462.968463
4413.382870
4431.424674
4419.929273
4423.411840
4423.830873
4425.328333
4428.506816
4439.377947
4425.537723
4418.045379
4427.761578
4431.268801
4414.974012
4442.261368
4415.960679
4474.333386
4399.674052
4454.244725
4352.353828
4449.687342
4420.049005
4416.533847
4399.826003
4400.661631
4541.529855
4336.127903
4353.150544
4450.228569
4408.629784
4430.314880
4402.150473
4419.998022
4420.224458
4418.007902
4427.151714
4432.168584
4432.251835
4417.243303
4420.860440
4417.298157
4451.245990
4412.601290
4438.834246
4422.167329
4443.524340
4403.431418
4430.891305
4390.448346
4457.490728
4369.309919
4556.154432
4370.311086
4431.711590
4522.003591
4451.543930
4483.118673
4380.252805
4492.490632
4425.478187
4411.645021
4510.112404
4450.124181
4426.447744
4425.510626
4440.379525
4434.961607
4413.970607
4427.143164
4429.731280
4443.850499
4415.695416
4438.057098
4398.263887
4450.718285
4398.796603
4443.309698
4414.626856
4450.481791
4387.884639
4507.017113
4311.055877
4419.719843
4384.098494
4570.372825
4372.361486
4397.598479
4458.038380
4470.942341
4429.125612
4382.650866
4436.369363
4375.304463
4417.763636
4434.793077
4421.004760
4416.733359
4416.138076
4440.336330
4441.191615
4403.377057
4435.089809
4412.190502
4437.881951
4430.517095
4443.682729
4397.459628
4463.868446
4359.761360
4477.954714
4356.464691
4478.397216
4363.276674
4534.640302
4383.337740
4436.545142
4414.388136
4496.917983
4418.459859
4402.624357
4453.487769
4441.677668
4403.246852
4453.534927
4415.181214
4423.314906
4426.510544
4440.897114
4440.419758
4415.845819
4423.832703
4438.073708
4441.283672
4420.242248
4442.398621
4402.775076
4437.834894
4431.200134
4446.588230
4420.234373
4475.515517
4405.649772
4517.498459
4370.028674
4482.159491
4431.463721
4419.464897
4364.162718
4436.229537
4399.331241
4448.486043
4436.501413
4456.653076
4428.105688
4406.650891
4450.255345
4421.538961
4428.881303
4423.160684
4408.875752
4444.670392
4428.530476
4421.431685
4423.572560
4417.670374
4431.114053
4435.037539
4425.558106
4418.573320
4421.381700
4448.755681
4457.211130
4440.362222
4461.706484
4447.844201
4411.782018
4386.433916
4615.138316
4466.040591
4446.645194
4455.873594
4433.485820
4435.331640
4405.691674
4450.623000
4396.505285
4419.056853
4425.995188
4431.478250
4414.768938
4440.321187
4438.359795
4408.774424
4446.073091
4419.490242
4442.599910
4437.033975
4394.069838
4422.463052
4424.575203
4445.115803
4468.509952
4389.945696
4455.298695
4451.325901
4353.527463
4469.353442
4410.886830
4424.199440
4414.698295
4391.184043
4453.465355
4402.882279
4432.987058
4429.389264
4446.546459
4441.305157
4430.856465
4426.182936
4433.242393
4432.927169
4425.123068
4402.774118
4445.445700
4433.297537
4416.268279
4444.549486
4406.555078
4448.600282
4417.376037
4416.356109
4460.889173
4405.290108
4379.166813
4441.114831
4440.248641
4427.655728
4426.237524
4415.779174
4580.393781
4446.948866
4433.544694
4472.642953
4430.033717
4443.583670
4457.915762
4395.071359
4416.525694
4424.142819
4430.400296
4427.107407
4421.110815
4430.637376
4443.739488
4436.536355
4407.584723
4439.111956
4423.807967
4416.858631
4452.132527
4412.761923
4416.104408
4398.772428
4438.848130
4446.562386
4415.387718
4470.236775
4414.172339
4437.877384
4419.347813
4437.227238
4430.904503
4420.913727
4396.969954
4434.920261
4438.622473
4429.407274
4466.838215
4449.483221
4406.857548
4432.109907
4428.788078
4439.050025
4429.733106
4412.759792
4410.841125
4450.600879
4440.150297
4413.018068
4443.548777
4403.899921
4451.598906
4398.326454
4454.634476
4405.428979
4447.811285
4467.728215
4383.938887
4467.915237
4397.009246
4412.093695
4547.029233
4522.708150
4406.191013
4401.387903
4424.103276
4434.745668
4458.650786
4439.596726
4413.820010
4441.847982
4435.859680
4420.794815
4427.997364
4418.403077
4440.992254
4443.310495
4407.682773
4409.200843
4441.397503
4437.916877
4411.438798
4443.401904
4423.899252
4450.656605
4433.594066
4372.630060
4428.055991
4395.302612
4415.214101
4440.081766
4393.300368
4435.433826
4416.576455
4424.308555
4456.390612
4434.324999
4384.052486
4396.782737
4412.188684
4404.919701
4409.627368
4430.475778
4430.510473
4435.249553
4429.944576
4417.947802
4414.314859
4433.945809
4446.465433
4426.441174
4392.415019
4446.967237
4411.684984
4437.363809
4419.849458
4398.310682
4433.300271
4418.322666
4449.383280
4498.713404
4421.508778
4428.239522
4520.427805
4425.137298
4423.352382
4424.243611
4430.690549
4437.403203
4437.160687
4468.336419
4471.443322
4414.644548
4430.736959
4435.908853
4431.670705
4413.997432
4424.488471
4439.663380
4427.031141
4404.326878
4431.098072
4435.807098
4440.608542
4398.671846
4438.092371
4404.778106
4448.970766
4386.141672
4420.405110
4498.478034
4571.699463
4386.890322
4372.460418
4407.018563
4395.318389
4459.670064
4462.265126
4395.009712
4486.678450
4454.263084
4398.427306
4425.356308
4436.369361
4427.049840
4431.311592
4420.686040
4442.610981
4437.114946
4400.801439
4423.446985
4444.595873
4430.505609
4395.790061
4427.310808
4425.447214
4439.953809
4383.890020
4459.457801
4405.461048
4486.101979
4349.399820
4330.539077
4505.523958
4396.523259
4409.870843
4436.972940
4408.643096
4473.218536
4407.230480
4440.669575
4411.470148
4414.945706
4424.494241
4411.597587
4425.005292
4439.935394
4431.767743
4413.611704
4423.422961
4441.689440
4439.077498
4398.613456
4420.958647
4442.445830
4435.366172
4392.792454
4441.432451
4421.504262
4430.543512
4418.596623
4416.164275
4494.620330
4487.849456
4424.549381
4405.597838
4375.224119
4455.129235
4450.694069
4383.856705
4446.971749
4448.815978
4433.323456
4426.043938
4436.702424
4420.545181
4433.166000
4427.850084
4419.456609
4443.147997
4433.670735
4416.685539
4418.602752
4439.640310
4439.812424
4397.345820
4421.242039
4448.345518
4420.232589
4436.763908
4392.859226
4450.164182
4401.409263
4471.781233
4332.720069
4355.582369
4432.762169
4394.653624
4427.617749
4459.226655
4374.996324
4457.488744
4447.826172
4444.360928
4434.234273
4421.680953
4420.708328
4430.712023
4429.773730
4430.471926
4442.498499
4411.294053
4437.163084
4433.019255
4419.198500
4412.601260
4455.016954
4419.517971
4415.248847
4410.473290
4447.825643
4403.960822
4449.208644
4327.516183
4477.134470
4390.483672
4452.220568
4398.691200
4419.858035
4382.526300
4447.573009
4473.747306
4374.530160
4453.995703
4459.355282
4424.413362
4422.627041
4418.624359
4430.475433
4427.765249
4426.135971
4415.678363
4429.469660
4449.113953
4400.583205
4438.993343
4418.226405
4429.930601
4395.589355
4451.593449
4409.621179
4431.851169
4396.994686
4447.131864
4458.649459
4483.565171
4428.913603
4559.001357
4385.892970
4462.202749
4482.992859
4411.357856
4393.845701
4370.040056
4426.437377
4416.661360
4439.309651
4429.119152
4390.146602
4423.961049
4423.360296
4428.998156
4436.843392
4428.074046
4415.770898
4425.540237
4451.884057
4397.060605
4434.500168
4421.221317
4445.439294
4382.216005
4450.388007
4430.153613
4407.320548
4402.820626
4467.337430
4361.462838
4393.718342
4602.759230
4454.186178
4495.246506
4479.931576
4423.312877
4394.882654
4433.994508
4437.313141
4458.006696
4412.434781
4385.903181
4418.231245
4443.042847
4430.233513
4416.962388
4416.398682
4430.779515
4440.566331
4401.640484
4420.934983
4447.054311
4416.810181
4403.256895
4455.117610
4414.916204
4415.895470
4474.662333
4395.991255
4472.567929
4405.254000
4475.222796
4410.153997
4442.260111
4408.970680
4381.979038
4433.708664
4441.170414
4444.732712
4440.816149
4383.995628
4420.937099
4456.627780
4430.400843
4429.237970
4407.007430
4443.478378
4438.635676
4406.521394
4410.839055
4432.626464
4447.766039
4382.061145
4446.548616
4428.938761
4431.328591
4437.849878
4410.042527
4421.732098
4398.906822
4447.305644
4396.160467
4445.011048
4421.475614
4426.392160
4439.990780
4496.136422
4419.311728
4437.696833
4451.224418
4382.708159
4477.469104
4412.611166
4426.268226
4424.864022
4424.574655
4438.147820
4437.849243
4404.000763
4441.582912
4432.086754
4400.867474
4427.527057
4431.014443
4431.319335
4418.329641
4396.994482
4435.530104
4425.889504
4415.080748
4442.481187
4410.623901
4425.133579
4422.478822
4419.567676
4406.944647
4450.664166
4430.624359
4442.822063
4449.065526
4448.176126
4430.238971
4461.116977
4445.764921
4423.697719
4424.107960
4426.322538
4426.017598
4406.649905
4438.633020
4433.743929
4410.333964
4441.895136
4407.587986
4437.550252
4398.399895
4431.592169
4440.209997
4413.075679
4415.920679
4451.235856
4399.980849
4421.733540
4455.589040
4519.662711
4416.167331
4399.853116
4488.681423
4418.716340
4463.173919
4438.806850
4442.586666
4430.170168
4399.715530
4425.671041
4455.057378
4424.352230
4426.129768
4423.147707
4438.552731
4438.449064
4407.403483
4413.941900
4444.711745
4410.683539
4417.597845
4425.527539
4411.972178
4388.615163
4434.818318
4419.394944
4455.247348
4405.131048
4451.268680
4376.128790
4424.936172
4416.248414
4393.037978
4495.399095
4449.732217
4443.003548
4440.939245
4458.893556
4435.940691
4460.245879
4418.612293
4410.997667
4420.555349
4443.483393
4426.340826
4420.923130
4399.383263
4449.190202
4447.307358
4394.842540
4424.657621
4429.829683
4409.454279
4424.802138
4425.582925
4426.544770
4373.469298
4451.359566
4411.628835
4484.491993
4356.865229
4472.919408
4419.093397
4576.423744
4410.607280
4455.022589
4447.015893
4435.847548
4421.117334
4416.913533
4447.343366
4378.595164
4432.556978
4432.664759
4432.549167
4406.796373
4441.759588
4445.878654
4410.833571
4406.269198
4443.442891
4431.778563
4408.192548
4416.628388
4421.227577
4411.404118
4416.964265
4408.983667
4450.454403
4387.395943
4450.061912
4392.497774
4463.353459
4399.826635
4408.165455
4496.937828
4410.457084
4426.105457
4457.065400
4445.405457
4427.165077
4458.013307
4416.224592
4423.365018
4427.952150
4419.674691
4443.959626
4433.657782
4405.096095
4434.549924
4431.967796
4424.284526
4400.534484
4432.901696
4421.488954
4412.891446
4416.706145
4439.755034
4395.800903
4420.512582
4398.770418
4431.585123
4411.442565
4423.963270
4389.037364
4433.901717
4434.347695
4494.364295
4469.865270
4429.073808
4445.991494
4452.666526
4419.053636
4446.470677
4404.682510
4421.111076
4422.958543
4431.166039
4411.147487
4437.572982
4448.905236
4404.488013
4410.152173
4433.173156
4432.813925
4404.142370
4425.525728
4417.651024
4411.388067
4440.095125
4457.200077
4432.749246
4401.482122
4407.816522
4484.747540
4518.330530
4414.670268
4489.399231
4460.395095
4456.585987
4461.932258
4449.814166
4470.637669
4423.529050
4443.955052
4435.835473
4424.247615
4435.102191
4418.022037
4438.401715
4441.368887
4384.873647
4442.228726
4443.565469
4403.631586
4405.020076
4429.833928
4421.479774
4424.423601
4414.373966
4404.242468
4392.986005
4423.146743
4455.591892
4464.843893
4469.042048
4439.877928
4458.640202
4470.777072
4425.997846
4454.883557
4460.732097
4456.299268
4440.667463
4395.078793
4437.372161
4395.708387
4422.201171
4430.393339
4430.523230
4423.111167
4413.688931
4445.315806
4443.225482
4385.957883
4433.800954
4434.399730
4420.604441
4404.337693
4414.143725
4434.944581
4443.479555
4435.888823
4425.437270
4455.364995
4384.515995
4437.782039
4484.249879
4450.532615
4438.725588
4484.696417
4408.195063
4476.456670
4430.204719
4375.415518
4484.885099
4341.236769
4442.118231
4433.116262
4426.863214
4426.030199
4428.457491
4431.619823
4429.672544
4395.826265
4441.514184
4444.486466
4399.253720
4420.099086
4420.950914
4428.239078
4398.767180
4376.392710
4420.471330
4416.260110
4418.054203
4425.482029
4452.249768
4445.846065
4454.380632
4455.546237
4427.539016
4449.625461
4480.260535
4469.459952
4450.722664
4459.769399
4449.515631
4408.877646
4435.600689
4420.388874
4440.637530
4425.587777
4427.219150
4406.000494
4438.179120
4439.758115
4386.405871
4438.371683
4447.973665
4408.261174
4411.954554
4420.681686
4423.740597
4434.890045
4420.185203
4425.584354
4428.756083
4438.524236
4420.079234
4443.814994
4451.494156
4429.977743
4454.200195
4447.686350
4435.095327
4408.804142
4375.648638
4379.749628
4421.987317
4428.002851
4431.086729
4436.299900
4410.945271
4440.462715
4438.673130
4411.032599
4397.458361
4443.738391
4441.997800
4386.194529
4442.500524
4413.123826
4412.064164
4418.096910
4399.502987
4418.108810
4417.002731
4421.743698
4429.133147
4443.369027
4434.030054
4448.986902
4465.866856
4449.206416
4448.024345
4457.017457
4434.095161
4461.460270
4528.183493
4443.100019
4434.046828
4432.852444
4420.051234
4442.641319
4420.745594
4413.322165
4435.153512
4438.110977
4410.593553
4408.248383
4433.010725
4440.337920
4411.755688
4423.761425
4419.506211
4433.003506
4421.330557
4438.573732
4422.403300
4437.429144
4439.106628
4438.896367
4436.649123
4446.189758
4438.980689
4453.641506
4462.971475
4422.144501
4363.967266
4486.359871
4431.455473
4425.856578
4428.060642
4430.951158
4443.372158
4395.478102
4442.315860
4426.478950
4408.953544
4416.495464
4431.947308
4431.019446
4398.129716
4439.147527
4429.525579
4409.169377
4425.931157
4416.588243
4426.315037
4408.413485
4436.170884
4426.699851
4426.337493
4436.681527
4420.995691
4427.959319
4441.570572
4442.757840
4483.223283
4447.309482
4441.196135
4414.751620
4425.270031
4417.287745
4442.453782
4418.405965
4430.872424
4432.271058
4402.124760
4431.700560
4446.213473
4417.819163
4406.331662
4458.232487
4399.083176
4422.161029
4428.409841
4423.809442
4430.102613
4407.931840
4435.485450
4433.094431
4425.114506
4438.431309
4446.190568
4466.936910
4423.085812
4446.757555
4461.270421
4451.095422
4436.846032
4457.551532
4442.873808
4428.425898
4421.254350
4422.186106
4414.565307
4451.703876
4411.789688
4436.245027
4442.625282
4396.946812
4441.151865
4421.055184
4417.234351
4426.277838
4438.047334
4431.895385
4440.306035
4413.684858
4423.786345
4438.277447
4406.453803
4449.310672
4449.508910
4449.946135
4445.804543
4429.315696
4435.257559
4449.647473
4429.731593
4437.192417
4465.453570
4441.936183
4422.463998
4424.682957
4439.268035
4426.083638
4416.687570
4408.795731
4438.315188
4408.490170
4452.137719
4445.318892
4408.624392
4444.183031
4414.925598
4415.315433
4412.578501
4436.367126
4417.038694
4424.319762
4423.718400
4409.750146
4432.624410
4392.281196
4446.252177
4428.153417
4450.831770
4454.236311
4427.463635
4448.942340
4451.295025
4464.697081
4448.955717
4424.571120
4431.729340
4409.923788
4424.225637
4440.022020
4429.624672
4412.127981
4423.011649
4421.365932
4396.767991
4431.474422
4393.868686
4413.476358
4419.084728
4431.882299
4403.883891
4436.464257
4430.215042
4443.504756
4428.870885
4425.313502
4423.573071
4427.903388
4448.372068
4436.233527
4431.749748
4460.518951
4449.606413
4429.979349
4442.205493
4454.018242
4425.059095
4427.331604
4433.594777
4438.282762
4427.038887
4437.205227
4431.434736
4437.703021
4412.081043
4444.230338
4462.672236
4401.187525
4446.497864
4454.583400
4411.011778
4432.303516
4434.416661
4393.396669
4450.002795
4417.949949
4423.683633
4441.598664
4420.000957
4438.635323
4440.569270
4431.905138
4453.391307
4433.826472
4471.832950
4467.259034
4463.506529
4425.364442
4425.979073
4415.331150
4419.770497
4390.087586
4449.711722
4435.401547
4414.643149
4426.450656
4415.783139
4383.479136
4441.021336
4440.494854
4408.956829
4422.637360
4394.115609
4435.191711
4419.201370
4447.355666
4445.516982
4459.118823
4376.675044
4456.605590
4409.814047
4444.511605
4433.495401
4458.447703
4434.121688
4477.109326
4412.083718
4468.234583
4422.489531
4424.423120
4435.381960
4428.796705
4429.058515
4426.364990
4422.275558
4459.792462
4406.673736
4449.815836
4441.067291
4441.418305
4388.092498
4435.086616
4424.011981
4451.832207
4406.149057
4419.653147
4428.492254
4394.393233
4436.666924
4448.136415
4455.042440
4450.413371
4457.234800
4427.886501
4464.155267
4457.118069
4441.291211
4460.779402
4464.201738
4421.885358
4421.382176
4430.273869
4410.861209
4415.648817
4415.937040
4438.092975
4422.371252
4441.105254
4414.416531
4425.288642
4392.136215
4438.773666
4440.694499
4419.670421
4430.339302
4424.696071
4440.195746
4460.005187
4402.695976
4451.614256
4419.122470
4438.277983
4390.010580
4451.664250
4414.870125
4470.350685
4457.304065
4453.418631
4455.928286
4460.827764
4428.060371
4434.026718
4419.907225
4428.601349
4448.153871
4441.165584
4444.027716
4416.794417
4422.643456
4434.028625
4459.337642
4452.234663
4417.457189
4405.416491
4409.435995
4476.324387
4436.388494
4438.210752
4413.809854
4436.997915
4429.598166
4444.739827
4463.132769
4455.799882
4434.985411
4462.790589
4430.814453
4458.350541
4470.095244
4444.264982
4460.427491
4426.362598
4428.945238
4422.423292
4419.447571
4400.960515
4448.392514
4420.677159
4420.797850
4427.680072
4439.430594
4390.550629
4395.802602
4465.519853
4441.824523
4400.181299
4432.537811
4430.252621
4443.986560
4455.627085
4419.722496
4428.243276
4446.647382
4397.936046
4424.818181
4458.871194
4432.886909
4458.165225
4459.244907
4452.342956
4460.557471
4457.816275
4431.008637
4425.875531
4438.180949
4435.924799
4426.337950
4428.549440
4434.857713
4405.869262
4441.768338
4435.280803
4438.843298
4453.011526
4407.897328
4406.992968
4447.171501
4434.456905
4417.927070
4427.160099
4418.263974
4418.231089
4435.745649
4410.546827
4452.141184
4442.549216
4469.399096
4405.017091
4448.848449
4448.418128
4462.077145
4450.505536
4453.263919
4430.721709
4424.085695
4437.425738
4408.274885
4443.198598
4416.801124
4411.927730
4443.696501
4423.881176
4412.470461
4403.749739
4427.710021
4430.723201
4440.975984
4404.828633
4441.314199
4457.232124
4444.059825
4427.980352
4469.831409
4437.428261
4447.980746
4409.637864
4457.599122
4426.081374
4474.119977
4460.433390
4432.502845
4461.599346
4454.148139
4451.009523
4441.174800
4429.106410
4438.585397
4434.458728
4441.276926
4429.387330
4442.363331
4411.022717
4419.011967
4446.259713
4430.681171
4430.938689
4435.522095
4440.960873
4456.490112
4429.150637
4434.973158
4448.408648
4421.449758
4397.368694
4470.911787
4462.979739
4400.995080
4450.695686
4457.953903
4448.578114
4426.368844
4426.968484
4490.913219
4466.437591
4450.047102
4429.582924
4429.171170
4417.767154
4430.710335
4418.025839
4424.998079
4429.731811
4430.748190
4438.084983
4425.627082
4404.447164
4444.050344
4415.999376
4420.046924
4439.896128
4411.521951
4437.451051
4418.946526
4450.134647
4437.156976
4437.173954
4440.632631
4460.490996
4449.363000
4412.377877
4454.133983
4447.534056
4448.103094
4446.602865
4452.114126
4446.575678
4428.225844
4436.483283
4445.594041
4414.495387
4451.807211
4407.157355
4446.113872
4395.499570
4427.786528
4446.538742
4445.163277
4440.038122
4441.012897
4401.542748
4419.369797
4440.458852
4442.410198
4431.766783
4428.027217
4428.488197
4441.999308
4453.326809
4443.917934
4427.179238
4466.676529
4440.390082
4417.880180
4444.409206
4443.590854
4463.577492
4445.106370
4448.820949
4424.605680
4424.975639
4429.326230
4414.927805
4450.636685
4429.092946
4453.532899
4442.559204
4407.295986
4417.816882
4412.406793
4459.690326
4444.963319
4431.767173
4425.706141
4435.000008
4439.231692
4421.042998
4446.295332
4440.673424
4429.048779
4423.857975
4442.298440
4430.585521
4453.886147
4459.426167
4448.515527
4428.530179
4461.100480
4444.872630
4430.059001
4426.119037
4439.278763
4442.032222
4415.697358
4424.700773
4418.309540
4445.569732
4414.382185
4455.480811
4447.414848
4435.360629
4421.210063
4452.019132
4405.210285
4453.905448
4448.555166
4426.842355