# vtk DataFile Version 2.0
mfree iwf
ASCII

DATASET UNSTRUCTURED_GRID
POINTS 6231 float
0.000000 0.000300 0.000000
0.000000 0.000310 0.000000
0.000000 0.000320 0.000000
0.000000 0.000330 0.000000
0.000000 0.000340 0.000000
0.000000 0.000350 0.000000
0.000000 0.000360 0.000000
0.000001 0.000370 0.000000
0.000001 0.000380 0.000000
0.000001 0.000390 0.000000
0.000001 0.000400 0.000000
0.000001 0.000410 0.000000
0.000001 0.000420 0.000000
0.000001 0.000430 0.000000
0.000001 0.000440 0.000000
0.000002 0.000450 0.000000
0.000002 0.000460 0.000000
0.000002 0.000471 0.000000
0.000002 0.000480 0.000000
0.000002 0.000492 0.000000
0.000006 0.000501 0.000000
0.000674 0.000886 0.000000
0.000739 0.000934 0.000000
0.000689 0.000896 0.000000
0.000751 0.000940 0.000000
0.000772 0.000949 0.000000
0.000820 0.000961 0.000000
0.000828 0.000960 0.000000
0.000841 0.000957 0.000000
0.000854 0.000956 0.000000
0.000885 0.000961 0.000000
0.000010 0.000300 0.000000
0.000010 0.000310 0.000000
0.000010 0.000320 0.000000
0.000010 0.000330 0.000000
0.000010 0.000340 0.000000
0.000010 0.000350 0.000000
0.000010 0.000360 0.000000
0.000011 0.000370 0.000000
0.000011 0.000380 0.000000
0.000011 0.000390 0.000000
0.000011 0.000400 0.000000
0.000011 0.000410 0.000000
0.000011 0.000420 0.000000
0.000011 0.000430 0.000000
0.000011 0.000440 0.000000
0.000011 0.000450 0.000000
0.000012 0.000460 0.000000
0.000011 0.000472 0.000000
0.000013 0.000478 0.000000
0.000009 0.000492 0.000000
0.000013 0.000498 0.000000
0.000791 0.000949 0.000000
0.000806 0.000952 0.000000
0.000814 0.000954 0.000000
0.000820 0.000952 0.000000
0.000837 0.000949 0.000000
0.000848 0.000949 0.000000
0.000863 0.000947 0.000000
0.000874 0.000950 0.000000
0.000880 0.000949 0.000000
0.000882 0.000957 0.000000
0.000020 0.000300 0.000000
0.000020 0.000310 0.000000
0.000020 0.000320 0.000000
0.000020 0.000330 0.000000
0.000021 0.000340 0.000000
0.000020 0.000350 0.000000
0.000021 0.000360 0.000000
0.000021 0.000370 0.000000
0.000020 0.000380 0.000000
0.000021 0.000390 0.000000
0.000021 0.000400 0.000000
0.000022 0.000410 0.000000
0.000020 0.000420 0.000000
0.000022 0.000430 0.000000
0.000020 0.000439 0.000000
0.000023 0.000451 0.000000
0.000021 0.000460 0.000000
0.000022 0.000470 0.000000
0.000021 0.000481 0.000000
0.000024 0.000494 0.000000
0.000020 0.000497 0.000000
0.000760 0.000933 0.000000
0.000788 0.000944 0.000000
0.000798 0.000947 0.000000
0.000803 0.000945 0.000000
0.000813 0.000940 0.000000
0.000828 0.000945 0.000000
0.000855 0.000943 0.000000
0.000870 0.000945 0.000000
0.000878 0.000937 0.000000
0.000886 0.000936 0.000000
0.000030 0.000300 0.000000
0.000030 0.000310 0.000000
0.000030 0.000320 0.000000
0.000031 0.000330 0.000000
0.000030 0.000340 0.000000
0.000030 0.000349 0.000000
0.000030 0.000360 0.000000
0.000031 0.000370 0.000000
0.000031 0.000380 0.000000
0.000031 0.000390 0.000000
0.000031 0.000400 0.000000
0.000031 0.000411 0.000000
0.000031 0.000420 0.000000
0.000032 0.000430 0.000000
0.000031 0.000440 0.000000
0.000030 0.000450 0.000000
0.000032 0.000459 0.000000
0.000036 0.000473 0.000000
0.000029 0.000478 0.000000
0.000033 0.000488 0.000000
0.000032 0.000497 0.000000
0.000063 0.000500 0.000000
0.000781 0.000938 0.000000
0.000798 0.000931 0.000000
0.000825 0.000936 0.000000
0.000835 0.000930 0.000000
0.000839 0.000942 0.000000
0.000845 0.000935 0.000000
0.000856 0.000934 0.000000
0.000863 0.000934 0.000000
0.000886 0.000928 0.000000
0.000040 0.000300 0.000000
0.000040 0.000310 0.000000
0.000040 0.000320 0.000000
0.000040 0.000329 0.000000
0.000040 0.000340 0.000000
0.000041 0.000351 0.000000
0.000040 0.000360 0.000000
0.000040 0.000370 0.000000
0.000041 0.000380 0.000000
0.000040 0.000390 0.000000
0.000042 0.000399 0.000000
0.000040 0.000410 0.000000
0.000042 0.000420 0.000000
0.000040 0.000431 0.000000
0.000042 0.000439 0.000000
0.000043 0.000450 0.000000
0.000043 0.000460 0.000000
0.000037 0.000469 0.000000
0.000045 0.000477 0.000000
0.000043 0.000496 0.000000
0.000040 0.000498 0.000000
0.000599 0.000728 0.000000
0.000790 0.000930 0.000000
0.000809 0.000931 0.000000
0.000816 0.000927 0.000000
0.000823 0.000934 0.000000
0.000845 0.000926 0.000000
0.000868 0.000924 0.000000
0.000867 0.000914 0.000000
0.000876 0.000928 0.000000
0.000885 0.000918 0.000000
0.000050 0.000300 0.000000
0.000050 0.000310 0.000000
0.000050 0.000319 0.000000
0.000049 0.000331 0.000000
0.000052 0.000340 0.000000
0.000050 0.000348 0.000000
0.000051 0.000360 0.000000
0.000050 0.000371 0.000000
0.000052 0.000379 0.000000
0.000050 0.000390 0.000000
0.000052 0.000400 0.000000
0.000049 0.000411 0.000000
0.000053 0.000420 0.000000
0.000051 0.000430 0.000000
0.000053 0.000440 0.000000
0.000047 0.000450 0.000000
0.000054 0.000458 0.000000
0.000053 0.000470 0.000000
0.000056 0.000482 0.000000
0.000048 0.000488 0.000000
0.000050 0.000498 0.000000
0.000777 0.000943 0.000000
0.000736 0.000924 0.000000
0.000804 0.000925 0.000000
0.000820 0.000916 0.000000
0.000834 0.000920 0.000000
0.000850 0.000920 0.000000
0.000842 0.000914 0.000000
0.000859 0.000922 0.000000
0.000875 0.000916 0.000000
0.000883 0.000907 0.000000
0.000060 0.000300 0.000000
0.000060 0.000310 0.000000
0.000060 0.000321 0.000000
0.000060 0.000329 0.000000
0.000060 0.000339 0.000000
0.000059 0.000352 0.000000
0.000063 0.000359 0.000000
0.000059 0.000368 0.000000
0.000062 0.000381 0.000000
0.000060 0.000390 0.000000
0.000063 0.000400 0.000000
0.000060 0.000409 0.000000
0.000063 0.000418 0.000000
0.000058 0.000431 0.000000
0.000065 0.000439 0.000000
0.000061 0.000450 0.000000
0.000065 0.000460 0.000000
0.000055 0.000472 0.000000
0.000064 0.000475 0.000000
0.000068 0.000486 0.000000
0.000058 0.000496 0.000000
0.000767 0.000941 0.000000
0.000781 0.000928 0.000000
0.000799 0.000913 0.000000
0.000811 0.000915 0.000000
0.000828 0.000908 0.000000
0.000835 0.000903 0.000000
0.000863 0.000904 0.000000
0.000854 0.000910 0.000000
0.000873 0.000905 0.000000
0.000881 0.000898 0.000000
0.000070 0.000300 0.000000
0.000070 0.000310 0.000000
0.000070 0.000320 0.000000
0.000070 0.000330 0.000000
0.000071 0.000341 0.000000
0.000071 0.000349 0.000000
0.000071 0.000358 0.000000
0.000067 0.000373 0.000000
0.000076 0.000376 0.000000
0.000069 0.000389 0.000000
0.000073 0.000400 0.000000
0.000069 0.000412 0.000000
0.000074 0.000421 0.000000
0.000069 0.000430 0.000000
0.000074 0.000439 0.000000
0.000066 0.000451 0.000000
0.000077 0.000459 0.000000
0.000073 0.000470 0.000000
0.000076 0.000485 0.000000
0.000068 0.000495 0.000000
0.000076 0.000496 0.000000
0.000594 0.000704 0.000000
0.000769 0.000928 0.000000
0.000792 0.000919 0.000000
0.000813 0.000898 0.000000
0.000829 0.000917 0.000000
0.000844 0.000902 0.000000
0.000853 0.000903 0.000000
0.000851 0.000892 0.000000
0.000870 0.000895 0.000000
0.000879 0.000888 0.000000
0.000080 0.000300 0.000000
0.000080 0.000310 0.000000
0.000080 0.000320 0.000000
0.000080 0.000330 0.000000
0.000080 0.000340 0.000000
0.000081 0.000351 0.000000
0.000080 0.000363 0.000000
0.000078 0.000370 0.000000
0.000079 0.000383 0.000000
0.000078 0.000392 0.000000
0.000088 0.000396 0.000000
0.000079 0.000408 0.000000
0.000084 0.000417 0.000000
0.000079 0.000429 0.000000
0.000087 0.000444 0.000000
0.000077 0.000447 0.000000
0.000086 0.000463 0.000000
0.000074 0.000470 0.000000
0.000087 0.000473 0.000000
0.000085 0.000482 0.000000
0.000084 0.000495 0.000000
0.000758 0.000938 0.000000
0.000730 0.000928 0.000000
0.000798 0.000901 0.000000
0.000809 0.000911 0.000000
0.000823 0.000901 0.000000
0.000829 0.000892 0.000000
0.000839 0.000893 0.000000
0.000860 0.000891 0.000000
0.000868 0.000885 0.000000
0.000877 0.000879 0.000000
0.000090 0.000300 0.000000
0.000090 0.000310 0.000000
0.000089 0.000320 0.000000
0.000090 0.000329 0.000000
0.000091 0.000340 0.000000
0.000090 0.000349 0.000000
0.000090 0.000359 0.000000
0.000092 0.000368 0.000000
0.000091 0.000379 0.000000
0.000091 0.000388 0.000000
0.000086 0.000406 0.000000
0.000094 0.000409 0.000000
0.000089 0.000425 0.000000
0.000095 0.000425 0.000000
0.000088 0.000436 0.000000
0.000097 0.000455 0.000000
0.000086 0.000454 0.000000
0.000097 0.000471 0.000000
0.000106 0.000480 0.000000
0.000089 0.000494 0.000000
0.000094 0.000495 0.000000
0.000603 0.000745 0.000000
0.000764 0.000922 0.000000
0.000752 0.000927 0.000000
0.000783 0.000919 0.000000
0.000810 0.000889 0.000000
0.000835 0.000883 0.000000
0.000848 0.000885 0.000000
0.000856 0.000880 0.000000
0.000866 0.000876 0.000000
0.000874 0.000869 0.000000
0.000100 0.000300 0.000000
0.000100 0.000310 0.000000
0.000101 0.000319 0.000000
0.000100 0.000331 0.000000
0.000101 0.000340 0.000000
0.000101 0.000350 0.000000
0.000101 0.000361 0.000000
0.000099 0.000372 0.000000
0.000100 0.000380 0.000000
0.000101 0.000391 0.000000
0.000099 0.000400 0.000000
0.000104 0.000407 0.000000
0.000100 0.000418 0.000000
0.000100 0.000436 0.000000
0.000110 0.000443 0.000000
0.000097 0.000445 0.000000
0.000108 0.000460 0.000000
0.000098 0.000467 0.000000
0.000095 0.000481 0.000000
0.000106 0.000491 0.000000
0.000101 0.000494 0.000000
0.000693 0.000901 0.000000
0.000701 0.000907 0.000000
0.000725 0.000924 0.000000
0.000809 0.000899 0.000000
0.000823 0.000889 0.000000
0.000825 0.000879 0.000000
0.000847 0.000875 0.000000
0.000838 0.000871 0.000000
0.000861 0.000869 0.000000
0.000871 0.000860 0.000000
0.000110 0.000300 0.000000
0.000110 0.000310 0.000000
0.000109 0.000321 0.000000
0.000111 0.000329 0.000000
0.000110 0.000339 0.000000
0.000110 0.000350 0.000000
0.000110 0.000359 0.000000
0.000113 0.000368 0.000000
0.000111 0.000378 0.000000
0.000111 0.000390 0.000000
0.000112 0.000399 0.000000
0.000110 0.000414 0.000000
0.000116 0.000422 0.000000
0.000107 0.000427 0.000000
0.000111 0.000433 0.000000
0.000106 0.000449 0.000000
0.000114 0.000461 0.000000
0.000111 0.000470 0.000000
0.000116 0.000480 0.000000
0.000111 0.000493 0.000000
0.000119 0.000492 0.000000
0.000647 0.000847 0.000000
0.000609 0.000766 0.000000
0.000759 0.000917 0.000000
0.000782 0.000907 0.000000
0.000772 0.000903 0.000000
[...]
POINT_DATA 6231
SCALARS density float 1
LOOKUP_TABLE default
4414.025953
4425.358799
4422.333318
4425.506281
4426.624124
4425.554773
4423.943678
4423.975931
4428.393501
4429.217651
4425.288731
4429.481432
4427.274075
4428.419754
4430.951326
4441.217162
4423.640971
4431.992445
4412.608957
4424.266537
4411.344862
4422.779720
4427.642289
4432.364804
4442.062793
4420.962724
4398.204694
4430.848828
4450.634677
4453.392001
4418.027979
4415.303652
4420.885113
4428.518846
4426.432610
4417.862953
4427.387704
4430.577145
4431.366150
4428.226103
4430.209585
4427.170213
4435.784069
4427.877353
4440.256946
4415.924674
4425.146718
4409.434572
4444.765959
4461.038724
4459.825128
4416.148622
4408.554994
4414.525242
4434.666602
4504.826651
4392.321062
4400.106354
4425.965130
4404.074521
4457.164934
4444.238909
4419.500275
4432.511758
4427.239122
4421.473524
4437.060865
4429.655245
4416.681381
4431.892849
4418.148410
4430.865624
4428.573178
4428.245451
4414.175419
4436.876485
4414.720151
4480.000413
4399.817196
4452.415506
4352.639059
4449.881293
4420.950658
4420.700098
4426.675153
4413.052141
4508.529334
4328.472560
4368.256143
4416.395104
4419.630357
4421.305011
4399.442384
4426.865984
4427.872880
4419.773009
4432.513693
4433.446115
4425.134782
4431.383454
4436.827340
4425.987195
4438.979905
4408.945592
4445.856261
4425.613417
4446.428435
4403.529058
4430.147553
4390.008903
4457.087694
4368.198701
4554.130366
4371.517188
4429.678015
4456.423678
4435.061536
4484.994642
4341.461435
4488.386495
4467.307331
4407.039629
4481.347845
4440.424064
4430.361173
4428.152043
4436.953248
4441.427636
4415.124597
4441.338508
4433.743786
4423.212987
4419.631880
4436.807530
4415.235608
4443.996366
4400.056015
4442.684948
4419.974405
4448.044724
4392.957233
4507.237398
4311.931330
4419.425873
4384.086748
4442.277577
4420.906097
4429.656810
4423.167472
4480.015115
4428.201071
4405.697010
4489.835994
4439.221720
4414.581086
4429.310088
4429.699359
4419.977917
4423.780702
4439.896305
4440.546354
4407.895049
4448.262570
4428.984854
4426.439539
4429.556165
4433.591764
4428.647709
4451.300697
4373.629747
4480.555939
4363.700372
4469.996717
4358.817208
4536.797288
4382.253409
4445.326012
4427.632195
4447.219076
4408.289588
4441.025566
4443.076361
4389.510780
4400.419916
4414.904737
4416.281158
4429.240408
4435.286772
4432.699509
4444.311375
4423.037747
4426.151593
4437.749624
4437.394199
4395.400966
4444.137311
4420.086916
4433.627904
4410.678964
4430.390972
4425.091265
4460.855882
4408.312579
4516.692436
4382.498290
4484.040296
4431.717738
4417.874889
4398.092964
4416.225342
4461.532145
4466.388155
4426.778517
4402.894973
4422.075107
4422.828243
4426.217747
4427.031374
4425.439036
4419.251484
4421.399223
4427.908470
4439.479398
4417.477154
4414.597174
4434.351596
4447.129733
4393.363884
4434.739550
4422.540043
4438.055293
4432.434103
4450.333033
4441.214822
4447.082833
4447.514505
4411.596184
4390.825234
4442.187090
4450.201372
4436.299939
4451.352432
4438.529993
4430.889995
4454.566811
4441.108316
4451.440666
4410.516549
4426.186694
4429.530930
4435.169256
4417.135044
4431.036501
4424.150105
4429.171516
4439.986961
4427.481586
4424.014363
4412.293293
4438.090113
4398.128643
4436.494144
4468.267854
4389.794566
4458.077022
4447.125898
4367.977967
4463.187730
4414.399730
4434.931358
4417.205659
4413.802240
4439.648745
4370.855116
4472.022324
4419.628471
4401.140238
4436.097320
4436.537233
4429.169952
4425.922930
4429.360833
4423.686753
4422.928448
4428.572433
4442.859412
4417.870571
4418.948516
4454.396038
4445.286411
4409.817848
4435.463611
4455.494999
4415.849140
4380.034594
4437.639381
4433.836751
4424.371415
4425.596770
4415.992416
4425.805943
4433.434427
4423.676769
4475.435228
4400.880353
4394.139031
4446.167009
4434.632130
4432.220600
4416.846504
4429.203141
4427.377190
4427.640828
4436.797039
4432.525338
4422.863521
4423.890045
4437.423347
4445.763402
4397.154108
4432.689196
4444.708943
4424.144787
4383.127637
4445.082404
4447.039265
4420.681148
4461.616455
4415.704127
4439.492797
4420.389276
4423.383294
4430.649754
4421.794661
4439.396137
4456.746179
4370.799772
4400.661431
4472.772101
4450.476193
4420.590047
4427.750637
4438.096749
4432.952334
4424.708558
4423.815657
4434.731340
4433.952746
4430.261428
4416.393416
4442.863332
4426.535989
4435.725182
4400.333309
4445.488789
4434.168711
4436.615119
4457.811310
4397.936236
4462.518995
4400.452525
4410.764766
4434.088349
4433.948803
4438.103800
4401.827853
4433.651685
4468.851744
4452.633010
4411.983263
4424.560597
4453.555285
4436.974411
4428.561872
4418.437126
4438.259893
4427.874170
4426.226977
4415.607587
4444.623873
4400.281909
4450.935459
4399.170936
4421.229486
4455.524371
4431.339509
4432.545579
4378.034651
4450.251963
4401.881370
4427.574958
4432.576495
4389.811419
4439.526241
4422.123390
4429.744685
4449.282330
4453.567877
4418.583881
4340.176075
4461.901170
4389.732515
4416.883825
4433.467447
4436.775308
4431.708024
4438.732065
4417.493986
4439.078979
4426.990382
4437.401997
4420.111046
4435.668166
4446.263200
4406.028214
4422.817699
4442.762959
4414.459140
4441.574784
4405.297213
4442.871124
4508.808961
4417.177517
4439.939398
4434.647825
4416.819532
4419.312566
4435.581964
4427.011132
4442.702064
4474.317469
4475.140993
4487.597461
4452.157936
4432.059167
4435.227814
4429.449402
4415.116218
4437.679832
4418.953249
4437.400022
4405.644904
4445.808572
4411.720230
4423.082531
4444.408985
4425.488205
4409.810730
4450.950182
4379.915767
4423.193053
4505.985678
4559.306482
4383.488391
4378.201063
4411.498850
4418.362078
4448.711893
4450.957465
4383.596954
4455.000940
4407.549766
4402.225146
4406.476074
4448.649996
4433.938740
4432.100779
4434.101046
4436.727338
4432.940934
4413.892651
4428.396975
4444.550855
4426.436084
4401.879584
4460.223735
4423.442905
4436.434287
4426.664193
4458.901884
4413.475195
4495.094212
4354.899582
4325.057760
4482.535653
4398.023532
4412.928914
4438.931640
4429.226467
4490.391666
4442.218552
4413.355454
4441.205217
4390.327473
4425.709360
4412.601072
4433.837600
4429.393136
4431.418386
4417.757529
4433.992914
4430.277512
4416.841190
4406.780942
4396.653775
4455.858536
4433.478657
4400.282303
4448.044046
4397.497007
4424.487477
4458.074509
4389.443955
4485.977062
4482.865406
4420.369876
4405.147555
4423.935297
4447.058879
4420.130153
4379.860936
4453.534594
4448.407940
4418.285970
4399.716575
4432.794729
4429.221532
4434.264077
4426.959720
4436.285043
4436.803004
4434.101160
4425.367358
4429.215146
4440.271967
4422.935289
4426.766303
4446.273504
4429.514360
4418.883506
4454.235998
4425.150084
4436.874186
4387.937629
4489.967583
4351.035860
4369.107288
4426.121289
4425.531030
4437.925195
4442.999868
4400.813820
4436.669316
4423.641085
4445.303064
4466.391502
4437.177400
4438.411319
4431.896907
4430.023003
4427.577237
4432.820971
4428.341434
4431.652407
4426.707725
4413.276039
4442.572229
4446.935946
4399.218620
4440.836875
4413.636420
4428.345665
4387.728457
4464.772854
4356.142733
4463.760989
4401.298202
4446.387957
4391.359924
4430.737666
4431.593185
4444.384300
4459.237461
4404.721963
4460.237638
4455.772695
4411.656294
4413.549937
4422.465368
4431.856184
4428.424405
4429.641225
4426.682852
4435.865318
4433.056767
4430.485568
4442.025331
4408.804719
4417.450532
4427.419729
4444.328702
4419.525205
4434.438232
4440.592111
4456.562361
4381.126800
4449.784019
4430.519513
4575.339148
4373.984523
4474.929209
4427.416722
4438.417108
4430.381735
4393.788444
4453.208024
4401.231258
4409.265630
4428.115425
4414.659471
4430.877854
4431.741283
4433.162380
4431.613118
4423.363696
4431.421821
4416.053319
4433.132082
4434.036376
4422.175667
4437.274454
4413.756846
4412.226948
4431.719567
4409.077573
4464.674580
4456.246360
4466.861754
4369.209541
4379.115098
4480.577431
4409.190785
4422.848123
4457.575918
4424.156987
4389.805855
4420.800587
4442.436566
4464.078333
4407.939949
4407.050739
4433.568325
4432.505265
4426.135546
4431.477252
4428.774852
4441.738457
4426.467224
4421.006229
4423.918452
4427.999629
4414.552268
4442.920280
4442.037199
4433.511235
4390.146308
4449.988464
4417.626170
4444.513258
4399.577699
4462.208912
4413.302193
4445.297457
4413.592031
4420.959564
4438.130517
4422.173438
4403.941195
4450.504662
4354.897673
4421.984296
4447.546275
4429.468598
4426.150289
4432.195737
4437.521357
4421.950612
4413.271191
4433.709350
4444.825558
4409.802559
4437.094308
4423.582138
4416.478801
4460.945321
4394.514637
4406.767866
4465.100929
4375.854705
4395.192143
4435.350661
4447.665186
4421.743947
4425.472790
4435.381410
4454.799020
4407.860157
4440.437806
4474.660031
4376.000436
4474.902258
4367.757974
4422.847923
4427.851511
4433.968325
4433.500417
4418.850142
4430.032150
4450.397321
4417.412137
4409.980081
4418.656607
4446.408356
4393.466253
4436.037563
4432.921630
4434.226905
4444.034456
4403.148877
4446.976201
4427.667980
4403.438128
4440.433877
4422.537315
4418.551834
4473.312583
4418.532694
4437.091070
4462.012612
4440.816797
4363.523305
4439.803985
4409.438511
4457.698679
4429.750040
4427.125502
4421.573536
4434.783924
4425.138403
4411.132038
4427.066198
4436.999365
4428.570880
4425.124107
4426.568481
4444.481547
4413.987571
4409.853030
4405.919105
4429.649065
4398.671033
4463.350778
4439.062264
4491.616085
4410.409151
4411.536334
4450.761269
4414.516664
4438.861186
4439.769997
4465.007463
4415.937393
4461.649532
4434.103884
4440.136270
4430.331760
4433.452958
4429.347637
4435.468070
4422.170773
4431.839750
4428.295922
4405.081581
4417.450074
4431.235548
4439.753402
4420.267012
4425.052077
4422.601924
4450.099928
4456.403113
4401.534175
4458.552249
4362.095529
4415.399699
4431.266615
4407.485384
4457.402393
4449.456785
4418.817813
4414.695177
4418.001581
4426.401780
4403.340370
4422.870923
4415.558065
4425.830307
4434.280057
4421.356347
4425.940889
4417.823242
4438.115602
4404.679378
4440.392178
4447.864461
4406.882612
4407.954350
4452.336882
4414.110909
4425.977562
4410.278480
4423.221637
4422.058927
4466.377086
4413.108822
4447.629233
4418.086342
4568.273033
4426.451575
4366.693654
4421.873223
4445.272053
4417.820616
4446.611317
4497.649052
4423.579744
4449.140764
4429.606930
4432.866251
4422.604576
4443.265581
4433.234566
4424.968153
4430.375130
4429.131307
4386.218613
4447.102624
4436.170211
4424.917754
4410.452815
4449.821015
4419.746544
4470.027145
4396.959347
4473.966915
4403.211319
4429.908483
4417.096971
4421.103558
4429.058181
4430.464313
4421.431656
4445.757650
4415.562948
4435.413141
4390.664042
4381.000468
4438.200356
4425.760675
4431.981197
4429.200133
4421.011040
4421.112446
4442.602259
4424.125976
4421.976231
4442.069518
4440.165374
4392.322934
4440.989227
4434.510604
4440.697730
4419.512800
4430.781543
4411.824267
4454.699630
4428.597048
4433.009306
4411.471808
4423.698020
4421.007951
4426.149188
4496.957720
4401.318048
4409.746607
4441.929361
4388.172533
4435.321973
4409.757366
4425.398068
4429.790286
4427.133639
4434.438021
4448.485258
4412.926375
4425.368018
4434.486892
4401.434367
4415.601143
4445.374926
4433.329060
4420.475826
4398.522747
4451.507809
4436.946902
4391.628135
4367.542494
4388.294541
4460.548912
4445.046367
4410.261778
4397.859958
4403.698972
4446.444912
4420.399422
4436.441905
4463.529391
4462.938351
4429.397934
4460.536456
4436.201610
4434.736062
4425.887957
4427.121378
4414.421246
4442.709386
4440.140789
4415.789007
4437.768157
4420.211652
4437.232769
4394.906998
4457.734099
4436.935705
4405.664343
4440.114654
4416.033748
4493.702357
4455.458487
4437.444644
4446.342968
4428.378790
4450.594146
4421.504386
4441.080637
4434.384534
4423.042809
4430.526716
4421.608352
4417.768607
4414.338881
4428.721394
4426.259097
4435.469030
4440.402530
4432.153248
4436.706977
4410.114089
4422.007011
4452.018902
4405.865747
4425.511888
4448.407535
4422.093253
4421.717288
4436.514162
4446.018067
4378.676065
4447.932083
4391.967751
4365.124101
4434.037956
4436.342445
4449.686243
4395.893282
4476.796729
4379.216221
4423.811779
4427.980643
4460.415327
4364.407039
4419.948196
4431.263787
4429.871984
4432.956725
4412.821131
4437.730183
4423.286405
4439.210272
4444.229639
4388.274060
4449.972563
4427.391358
4424.403399
4414.875810
4452.123771
4412.042796
4454.696324
4412.869330
4386.912242
4480.296813
4470.520000
4449.757691
4400.575109
4402.770548
4437.640597
4446.888234
4429.186151
4373.043465
4461.693809
4429.729565
4450.517728
4423.588209
4438.708207
4433.270211
4430.049566
4433.842176
4430.729587
4429.531834
4402.721938
4415.407431
4434.839728
4444.271716
4392.660079
4448.940593
4428.902156
4440.246126
4404.170701
4429.447046
4440.264623
4459.843462
4345.822589
4474.081081
4457.875010
4463.174169
4498.069728
4431.170012
4451.810987
4459.774512
4446.886218
4429.014498
4394.541348
4406.109734
4437.180137
4435.669110
4424.307142
4420.933655
4426.581255
4413.882743
4445.757543
4407.743397
4451.941918
4407.896021
4411.160508
4423.560706
4443.741996
4402.101956
4436.302046
4404.664089
4440.970384
4388.147230
4438.500592
4312.753129
4504.558297
4493.715196
4426.965230
4406.899997
4524.731046
4376.097583
4440.587459
4388.826059
4468.229283
4358.444629
4428.533749
4440.897518
4429.675765
4436.633919
4436.395152
4428.389827
4433.476014
4427.360576
4432.146640
4408.432125
4426.869293
4435.801923
4424.547660
4404.210573
4421.117160
4443.202321
4410.545911
4462.175644
4380.486127
4468.423630
4458.933888
4507.533938
4426.977808
4421.312795
4360.536890
4421.658838
4417.538096
4428.782224
4453.306812
4466.517761
4441.189418
4379.967586
4453.425900
4423.808508
4427.660936
4428.215972
4418.964556
4425.373395
4412.861052
4431.748491
4431.208643
4417.790380
4416.864093
4422.398746
4441.755642
4414.375442
4429.558275
4426.010743
4423.070071
4437.088097
4441.770568
4443.861809
4482.687601
4611.964640
4396.372987
4536.488600
4413.982913
4419.251473
4470.125378
4387.479019
4420.691042
4450.812031
4435.733986
4415.076263
4426.846052
4426.918780
4429.697074
4439.748898
4428.896768
4417.633964
4435.860376
4436.687942
4429.199832
4456.986112
4424.453333
4412.345413
4430.278698
4436.824790
4395.798682
4437.527578
4419.187185
4411.866620
4412.971445
4428.420884
4395.406764
4422.844303
4434.620803
4410.367644
4427.116684
4462.295436
4364.001456
4371.411504
4495.768978
4464.306799
4412.655107
4423.625651
4433.294805
4414.886870
4417.062902
4444.128733
4446.284675
4401.115473
4443.770114
4417.075514
4417.171488
4417.930129
4431.813899
4425.994622
4432.801919
4431.293163
4439.491348
4389.675050
4433.572289
4462.391257
4455.031596
4425.912596
4480.952054
4404.843363
4420.447603
4420.501339
4458.970681
4477.009728
4436.879709
4375.701122
4417.850752
4398.094692
4426.625557
4430.631444
4423.387106
4450.543119
4422.434799
4404.637130
4412.065461
4452.691942
4402.603642
4447.646436
4433.355268
4423.047338
4432.479220
4418.425005
4433.745490
4429.199871
4444.214696
4367.296053
4443.739905
4479.834692
4414.506317
4463.139204
4437.342178
4422.712870
4470.678475
4456.281206
4419.650499
4528.504009
4371.551597
4457.217698
4418.168904
4425.280990
4433.839316
4418.947305
4427.156898
4421.609327
4451.655610
4422.821835
4421.157936
4449.983409
4434.434221
4391.917895
4395.304531
4424.831989
4424.209946
4418.344216
4415.600744
4406.038339
4434.369593
4422.242746
4452.705532
4429.880845
4427.364626
4442.861054
4441.178724
4470.029897
4432.271772
4466.383754
4416.555390
4359.351629
4390.854144
4420.785059
4420.847139
4431.570935
4430.259194
4418.845696
4440.872283
4402.042359
4423.686216
4428.503460
4435.354027
4416.381260
4412.549813
4462.529113
4418.115228
4425.653957
4422.399134
4426.898791
4450.673300
4405.728632
4415.271174
4446.171600
4416.180565
4420.615366
4467.515564
4374.086386
4371.130516
4487.641873
4417.509654
4392.597814
4459.018437
4463.765180
4416.271572
4429.510653
4420.423494
4425.855861
4426.575521
4425.273910
4442.697987
4414.969180
4425.511963
4414.399178
4432.113245
4405.094674
4432.603669
4420.019509
4440.625107
4394.662186
4457.048526
4385.185530
4436.866172
4373.151527
4432.436238
4421.381705
4462.642142
4383.060243
4461.974038
4432.402502
4449.090236
4391.156440
4388.320458
4468.230783
4356.815540
4418.290420
4425.165333
4423.019467
4433.891924
4434.490092
4402.734400
4462.100796
4413.558973
4442.090261
4415.291879
4432.543488
4416.478600
4421.025824
4441.260970
4412.262800
4433.798925
4396.393912
4419.238874
4453.835102
4416.945933
4482.012884
4438.257565
4397.949646
4438.000475
4416.765769
4488.519603
4459.922012
4458.966605
4472.451203
4457.471746
4412.292198
4415.439044
4425.172312
4432.432309
4418.338566
4424.644894
4441.131405
4398.959976
4430.250919
4440.679305
4417.362750
4426.227828
4428.403783
4444.074886
4388.661046
4434.588232
4433.248810
4394.139682
4413.547009
4390.439024
4387.762675
4481.176335
4449.320166
4430.597039
4346.024809
4458.384576
4422.002825
4386.577897
4451.780230
4409.766157
4454.228399
4429.460731
4404.401615
4421.254120
4425.293181
4430.257432
4414.372475
4441.290451
4428.693785
4425.049511
4412.594764
4409.836634
4449.942219
4425.951483
4429.416100
4445.957259
4437.338668
4470.483357
4444.174131
4394.946758
4446.297807
4441.739887
4451.594042
4417.398714
4399.290480
4433.760335
4428.327946
4441.714145
4435.814700
4428.125023
4395.706940
4442.629348
4381.585169
4459.813813
4423.666046
4431.094854
4436.581707
4427.557704
4400.637093
4455.344921
4430.793217
4440.145907
4413.276112
4436.933334
4432.366889
4430.047408
4391.746817
4417.089850
4418.425887
4451.971673
4424.023199
4492.899163
4388.494761
4330.966597
4405.394124
4467.280123
4458.542088
4412.137506
4457.078011
4447.269758
4457.491060
4364.387879
4431.176973
4417.458792
4361.862954
4439.611839
4432.646427
4406.588833
4428.419680
4438.565305
4413.737861
4415.221739
4426.723570
4420.224400
4423.084208
4411.845706
4441.312317
4445.784430
4451.157581
4414.880765
4413.198625
4472.490117
4399.451081
4383.256069
4566.543086
4377.590925
4422.921699
4515.899855
4437.485684
4444.207325
4421.165622
4447.058032
4458.988505
4476.456329
4393.986248
4430.993980
4427.161785
4427.031692
4443.714641
4437.823775
4398.861204
4417.542165
4419.921739
4414.996935
4414.656525
4433.902850
4421.068898
4403.976800
4392.945227
4437.425579
4432.711257
4417.804247
4471.120719
4460.855963
4386.001181
4440.582895
4488.747790
4500.582421
4449.287229
4427.369761
4479.719129
4443.741044
4402.002211
4444.891638
4470.425470
4434.008604
4481.113776
4427.068456
4435.157947
4425.585319
4422.901581
4434.407918
4443.606121
4437.075124
4417.861703
4411.425296
4424.354060
4447.843352
4436.392281
4432.625701
4427.690545
4412.819862
4448.763626
4406.415476
4403.539046
4440.028645
4441.549000
4663.600139
4466.856712
4468.056276
4493.346408
4477.043179
4458.294325
4432.900294
4384.914019
4369.842296
4345.409977
4373.750140
4431.307242
4443.091742
4403.806401
4432.660253
4435.525252
4403.277857
4442.361951
4423.591582
4433.294369
4430.043174
4419.576292
4422.038138
4427.016824
4431.251295
4415.831867
4430.125200
4402.927115
4423.482125
4455.342405
4388.657252
4449.865687
4424.344821
4461.436775
4428.369188
4457.062331
4441.664635
4425.117003
4427.114494
4472.796450
4425.677434
4446.383949
4427.499649
4416.139099
4439.080268
4427.427153
4405.293247
4443.165733
4414.839139
4400.563682
4419.080438
4439.299348
4419.330141
4451.548368
4418.703099
4430.859659
4432.856365
4431.627202
4415.490322
4442.573094
4415.013712
4414.306400
4391.308907
4482.367846
4444.427683
4458.831880
4399.354450
4420.232280
4439.141498
4398.803640
4453.831188
4397.246710
4418.653443
4435.274391
4423.060397
4428.704384
4451.316072
4442.831998
4394.661405
4443.015795
4417.619723
4433.344673
4405.523396
4424.524103
4429.287507
4413.524605
4433.195716
4423.618450
4439.117549
4434.285944
4450.441925
4490.574280
4380.968887
4423.419893
4418.947665
4453.452797
4402.119694
4425.228858
4472.237501
4405.219621
4450.167650
4420.661004
4424.980186
4382.114279
4420.249616
4432.706210
4413.368388
4389.585694
4431.563524
4434.956335
4457.184200
4450.085755
4395.656734
4441.326504
4423.953765
4423.165148
4422.125945
4418.674934
4407.720935
4396.528702
4414.546015
4454.202060