# vtk DataFile Version 2.0
mfree iwf
ASCII

DATASET UNSTRUCTURED_GRID
POINTS 6231 float
0.000000 0.000300 0.000000
0.000000 0.000310 0.000000
0.000000 0.000320 0.000000
0.000000 0.000330 0.000000
0.000000 0.000340 0.000000
0.000000 0.000350 0.000000
0.000001 0.000360 0.000000
0.000001 0.000370 0.000000
0.000001 0.000380 0.000000
0.000001 0.000390 0.000000
0.000001 0.000400 0.000000
0.000001 0.000410 0.000000
0.000001 0.000420 0.000000
0.000001 0.000430 0.000000
0.000001 0.000440 0.000000
0.000002 0.000450 0.000000
0.000002 0.000460 0.000000
0.000002 0.000471 0.000000
0.000002 0.000480 0.000000
0.000002 0.000492 0.000000
0.000006 0.000501 0.000000
0.000580 0.000836 0.000000
0.000640 0.000890 0.000000
0.000594 0.000848 0.000000
0.000652 0.000898 0.000000
0.000672 0.000908 0.000000
0.000718 0.000924 0.000000
0.000726 0.000925 0.000000
0.000739 0.000922 0.000000
0.000752 0.000923 0.000000
0.000784 0.000930 0.000000
0.000010 0.000300 0.000000
0.000010 0.000310 0.000000
0.000010 0.000320 0.000000
0.000010 0.000330 0.000000
0.000010 0.000340 0.000000
0.000010 0.000350 0.000000
0.000011 0.000360 0.000000
0.000011 0.000370 0.000000
0.000011 0.000380 0.000000
0.000011 0.000390 0.000000
0.000011 0.000400 0.000000
0.000011 0.000410 0.000000
0.000011 0.000420 0.000000
0.000011 0.000430 0.000000
0.000011 0.000440 0.000000
0.000012 0.000450 0.000000
0.000012 0.000460 0.000000
0.000012 0.000472 0.000000
0.000013 0.000478 0.000000
0.000009 0.000492 0.000000
0.000013 0.000498 0.000000
0.000691 0.000910 0.000000
0.000705 0.000914 0.000000
0.000713 0.000917 0.000000
0.000719 0.000916 0.000000
0.000737 0.000914 0.000000
0.000748 0.000915 0.000000
0.000762 0.000915 0.000000
0.000773 0.000918 0.000000
0.000779 0.000918 0.000000
0.000781 0.000926 0.000000
0.000020 0.000300 0.000000
0.000020 0.000310 0.000000
0.000020 0.000320 0.000000
0.000020 0.000330 0.000000
0.000021 0.000340 0.000000
0.000020 0.000350 0.000000
0.000021 0.000360 0.000000
0.000021 0.000370 0.000000
0.000021 0.000380 0.000000
0.000021 0.000390 0.000000
0.000021 0.000400 0.000000
0.000022 0.000410 0.000000
0.000021 0.000420 0.000000
0.000022 0.000431 0.000000
0.000020 0.000440 0.000000
0.000024 0.000451 0.000000
0.000021 0.000460 0.000000
0.000022 0.000470 0.000000
0.000021 0.000481 0.000000
0.000024 0.000494 0.000000
0.000020 0.000497 0.000000
0.000662 0.000891 0.000000
0.000688 0.000904 0.000000
0.000697 0.000909 0.000000
0.000703 0.000907 0.000000
0.000714 0.000903 0.000000
0.000728 0.000910 0.000000
0.000755 0.000910 0.000000
0.000770 0.000913 0.000000
0.000779 0.000906 0.000000
0.000787 0.000906 0.000000
0.000030 0.000300 0.000000
0.000030 0.000310 0.000000
0.000030 0.000320 0.000000
0.000031 0.000330 0.000000
0.000030 0.000340 0.000000
0.000030 0.000349 0.000000
0.000031 0.000359 0.000000
0.000030 0.000370 0.000000
0.000032 0.000380 0.000000
0.000030 0.000390 0.000000
0.000031 0.000400 0.000000
0.000031 0.000411 0.000000
0.000031 0.000420 0.000000
0.000031 0.000430 0.000000
0.000032 0.000440 0.000000
0.000030 0.000450 0.000000
0.000032 0.000459 0.000000
0.000036 0.000473 0.000000
0.000030 0.000478 0.000000
0.000033 0.000488 0.000000
0.000032 0.000497 0.000000
0.000063 0.000500 0.000000
0.000682 0.000898 0.000000
0.000699 0.000894 0.000000
0.000726 0.000901 0.000000
0.000736 0.000896 0.000000
0.000740 0.000907 0.000000
0.000747 0.000901 0.000000
0.000757 0.000901 0.000000
0.000765 0.000902 0.000000
0.000788 0.000897 0.000000
0.000040 0.000300 0.000000
0.000040 0.000310 0.000000
0.000040 0.000320 0.000000
0.000040 0.000329 0.000000
0.000040 0.000340 0.000000
0.000041 0.000351 0.000000
0.000040 0.000360 0.000000
0.000041 0.000370 0.000000
0.000041 0.000380 0.000000
0.000040 0.000390 0.000000
0.000042 0.000399 0.000000
0.000040 0.000410 0.000000
0.000043 0.000420 0.000000
0.000039 0.000431 0.000000
0.000043 0.000439 0.000000
0.000043 0.000450 0.000000
0.000043 0.000460 0.000000
0.000036 0.000469 0.000000
0.000045 0.000477 0.000000
0.000043 0.000496 0.000000
0.000040 0.000498 0.000000
0.000521 0.000671 0.000000
0.000692 0.000890 0.000000
0.000710 0.000894 0.000000
0.000718 0.000890 0.000000
0.000724 0.000898 0.000000
0.000746 0.000891 0.000000
0.000769 0.000893 0.000000
0.000770 0.000883 0.000000
0.000777 0.000897 0.000000
0.000787 0.000888 0.000000
0.000050 0.000300 0.000000
0.000050 0.000310 0.000000
0.000050 0.000320 0.000000
0.000049 0.000331 0.000000
0.000052 0.000340 0.000000
0.000050 0.000348 0.000000
0.000051 0.000359 0.000000
0.000050 0.000370 0.000000
0.000052 0.000380 0.000000
0.000050 0.000390 0.000000
0.000052 0.000400 0.000000
0.000049 0.000411 0.000000
0.000053 0.000420 0.000000
0.000051 0.000430 0.000000
0.000053 0.000440 0.000000
0.000047 0.000451 0.000000
0.000054 0.000458 0.000000
0.000053 0.000469 0.000000
0.000056 0.000482 0.000000
0.000049 0.000488 0.000000
0.000050 0.000498 0.000000
0.000677 0.000903 0.000000
0.000638 0.000880 0.000000
0.000705 0.000887 0.000000
0.000723 0.000880 0.000000
0.000736 0.000885 0.000000
0.000753 0.000889 0.000000
0.000745 0.000879 0.000000
0.000761 0.000888 0.000000
0.000777 0.000885 0.000000
0.000786 0.000877 0.000000
0.000060 0.000300 0.000000
0.000060 0.000310 0.000000
0.000060 0.000321 0.000000
0.000061 0.000329 0.000000
0.000060 0.000340 0.000000
0.000059 0.000351 0.000000
0.000063 0.000361 0.000000
0.000059 0.000369 0.000000
0.000063 0.000381 0.000000
0.000059 0.000390 0.000000
0.000063 0.000400 0.000000
0.000061 0.000409 0.000000
0.000063 0.000419 0.000000
0.000058 0.000431 0.000000
0.000065 0.000439 0.000000
0.000061 0.000449 0.000000
0.000065 0.000460 0.000000
0.000055 0.000472 0.000000
0.000065 0.000475 0.000000
0.000068 0.000486 0.000000
0.000058 0.000496 0.000000
0.000668 0.000900 0.000000
0.000682 0.000889 0.000000
0.000701 0.000875 0.000000
0.000714 0.000879 0.000000
0.000731 0.000873 0.000000
0.000739 0.000869 0.000000
0.000767 0.000871 0.000000
0.000756 0.000876 0.000000
0.000776 0.000873 0.000000
0.000785 0.000868 0.000000
0.000070 0.000300 0.000000
0.000070 0.000310 0.000000
0.000070 0.000319 0.000000
0.000070 0.000331 0.000000
0.000071 0.000340 0.000000
0.000071 0.000350 0.000000
0.000071 0.000356 0.000000
0.000068 0.000372 0.000000
0.000074 0.000376 0.000000
0.000070 0.000390 0.000000
0.000072 0.000400 0.000000
0.000069 0.000412 0.000000
0.000074 0.000421 0.000000
0.000069 0.000429 0.000000
0.000075 0.000439 0.000000
0.000066 0.000452 0.000000
0.000077 0.000458 0.000000
0.000073 0.000470 0.000000
0.000076 0.000486 0.000000
0.000068 0.000495 0.000000
0.000076 0.000496 0.000000
0.000519 0.000646 0.000000
0.000671 0.000887 0.000000
0.000694 0.000881 0.000000
0.000718 0.000864 0.000000
0.000732 0.000882 0.000000
0.000748 0.000868 0.000000
0.000757 0.000872 0.000000
0.000756 0.000859 0.000000
0.000774 0.000863 0.000000
0.000784 0.000858 0.000000
0.000080 0.000300 0.000000
0.000080 0.000310 0.000000
0.000080 0.000320 0.000000
0.000080 0.000330 0.000000
0.000080 0.000340 0.000000
0.000082 0.000352 0.000000
0.000078 0.000363 0.000000
0.000082 0.000370 0.000000
0.000079 0.000383 0.000000
0.000079 0.000391 0.000000
0.000087 0.000396 0.000000
0.000080 0.000408 0.000000
0.000084 0.000418 0.000000
0.000079 0.000430 0.000000
0.000088 0.000445 0.000000
0.000077 0.000447 0.000000
0.000086 0.000463 0.000000
0.000074 0.000470 0.000000
0.000087 0.000473 0.000000
0.000085 0.000482 0.000000
0.000084 0.000495 0.000000
0.000658 0.000896 0.000000
0.000631 0.000884 0.000000
0.000703 0.000865 0.000000
0.000713 0.000873 0.000000
0.000727 0.000864 0.000000
0.000735 0.000858 0.000000
0.000744 0.000858 0.000000
0.000765 0.000858 0.000000
0.000774 0.000854 0.000000
0.000783 0.000848 0.000000
0.000090 0.000300 0.000000
0.000090 0.000310 0.000000
0.000090 0.000320 0.000000
0.000090 0.000329 0.000000
0.000091 0.000340 0.000000
0.000089 0.000348 0.000000
0.000091 0.000359 0.000000
0.000090 0.000368 0.000000
0.000091 0.000379 0.000000
0.000092 0.000388 0.000000
0.000085 0.000406 0.000000
0.000094 0.000408 0.000000
0.000089 0.000425 0.000000
0.000096 0.000426 0.000000
0.000088 0.000436 0.000000
0.000097 0.000455 0.000000
0.000086 0.000454 0.000000
0.000097 0.000471 0.000000
0.000106 0.000480 0.000000
0.000089 0.000495 0.000000
0.000094 0.000495 0.000000
0.000524 0.000689 0.000000
0.000667 0.000881 0.000000
0.000654 0.000884 0.000000
0.000685 0.000879 0.000000
0.000717 0.000854 0.000000
0.000740 0.000849 0.000000
0.000754 0.000852 0.000000
0.000762 0.000847 0.000000
0.000772 0.000844 0.000000
0.000781 0.000838 0.000000
0.000100 0.000300 0.000000
0.000100 0.000310 0.000000
0.000100 0.000320 0.000000
0.000100 0.000331 0.000000
0.000101 0.000340 0.000000
0.000099 0.000351 0.000000
0.000102 0.000361 0.000000
0.000099 0.000371 0.000000
0.000102 0.000381 0.000000
0.000099 0.000392 0.000000
0.000101 0.000399 0.000000
0.000103 0.000408 0.000000
0.000100 0.000418 0.000000
0.000100 0.000436 0.000000
0.000110 0.000443 0.000000
0.000097 0.000445 0.000000
0.000107 0.000460 0.000000
0.000098 0.000467 0.000000
0.000095 0.000481 0.000000
0.000106 0.000491 0.000000
0.000101 0.000494 0.000000
0.000597 0.000853 0.000000
0.000605 0.000859 0.000000
0.000627 0.000879 0.000000
0.000711 0.000859 0.000000
0.000727 0.000852 0.000000
0.000732 0.000843 0.000000
0.000753 0.000842 0.000000
0.000745 0.000836 0.000000
0.000768 0.000837 0.000000
0.000778 0.000829 0.000000
0.000110 0.000300 0.000000
0.000110 0.000310 0.000000
0.000110 0.000321 0.000000
0.000110 0.000329 0.000000
0.000110 0.000339 0.000000
0.000111 0.000350 0.000000
0.000109 0.000358 0.000000
0.000112 0.000369 0.000000
0.000110 0.000378 0.000000
0.000111 0.000389 0.000000
0.000112 0.000400 0.000000
0.000110 0.000413 0.000000
0.000115 0.000422 0.000000
0.000107 0.000427 0.000000
0.000112 0.000433 0.000000
0.000106 0.000450 0.000000
0.000115 0.000461 0.000000
0.000111 0.000471 0.000000
0.000116 0.000480 0.000000
0.000111 0.000493 0.000000
0.000119 0.000492 0.000000
0.000557 0.000795 0.000000
0.000527 0.000710 0.000000
0.000661 0.000875 0.000000
0.000686 0.000868 0.000000
0.000676 0.000863 0.000000
[...]
POINT_DATA 6231
SCALARS density float 1
LOOKUP_TABLE default
4411.062865
4424.724819
4420.725652
4423.094101
4427.498833
4427.620361
4422.477869
4422.041167
4428.325803
4429.415004
4426.503559
4430.062613
4426.381089
4430.087627
4431.969690
4441.461245
4423.591118
4430.843579
4412.629344
4424.211112
4411.277477
4423.681256
4424.567526
4431.833482
4440.730518
4417.592507
4400.458803
4432.776285
4449.781524
4452.894623
4419.341888
4412.587742
4418.972248
4430.265844
4426.506281
4421.738661
4422.490201
4426.430173
4432.707634
4426.987913
4429.008744
4422.796376
4435.080613
4425.554850
4437.254937
4416.165074
4424.085352
4409.565716
4446.778093
4461.250965
4459.828342
4416.583734
4408.740916
4409.030388
4430.638730
4503.793232
4392.747826
4401.470316
4425.077085
4410.432693
4461.589236
4448.218739
4416.642454
4432.321910
4426.102735
4416.462082
4432.717224
4426.259809
4424.569913
4434.335004
4411.553143
4435.483856
4426.407739
4430.296289
4419.199799
4438.538563
4411.616818
4481.765914
4399.473005
4450.779728
4351.722873
4449.521709
4420.989117
4421.195853
4425.526871
4412.288789
4519.058566
4328.361685
4366.545944
4421.405105
4414.680163
4413.433868
4400.545384
4426.770774
4429.757183
4416.126554
4435.953876
4435.360941
4429.871452
4426.975465
4422.784381
4432.600361
4436.813405
4410.145284
4440.451776
4414.362857
4448.615488
4400.013156
4435.246444
4384.920425
4458.619720
4369.374869
4555.999433
4370.237739
4430.839136
4456.207609
4425.360915
4488.020980
4341.823436
4491.812843
4464.653914
4394.927689
4491.315178
4446.912803
4431.793537
4423.970319
4434.583704
4443.400889
4408.183607
4431.338295
4433.725432
4432.295296
4426.912715
4424.867997
4415.420498
4454.046160
4405.031478
4443.197283
4416.271168
4445.622261
4390.656145
4509.922165
4307.572714
4419.961889
4383.807712
4430.539774
4422.845314
4419.291375
4429.202908
4476.587916
4435.638533
4402.411679
4490.490905
4431.366581
4418.159796
4424.402837
4424.132408
4431.111515
4413.581898
4446.299991
4455.439169
4406.973768
4436.317108
4411.530717
4442.748511
4429.690554
4420.704677
4419.688372
4453.468662
4376.166709
4481.297172
4362.285454
4474.408418
4359.026872
4536.691812
4382.611193
4445.957440
4427.620942
4451.393937
4407.392025
4438.468698
4442.928809
4389.888853
4388.834593
4411.470066
4416.575117
4424.719627
4442.080175
4426.426281
4439.237685
4421.945339
4412.892966
4432.379644
4447.817050
4412.495719
4436.253885
4420.180387
4445.515348
4420.704676
4424.888747
4421.427648
4462.205189
4406.206435
4517.750200
4378.850792
4482.280236
4432.433290
4416.834393
4395.324327
4413.920852
4463.648819
4461.581411
4428.422135
4399.265620
4429.134139
4422.569265
4427.574355
4430.273939
4429.499790
4403.883847
4444.547486
4419.031608
4445.363687
4447.419505
4412.177704
4426.577725
4448.480778
4389.982631
4423.990455
4408.336086
4444.342949
4433.162653
4452.267895
4441.725964
4448.401440
4448.414760
4412.028853
4389.413622
4529.102821
4452.003969
4442.295027
4450.722105
4430.275209
4423.973540
4468.569811
4433.467776
4452.520931
4412.507166
4422.846910
4430.097149
4436.659247
4417.590725
4412.515607
4420.542494
4401.255343
4443.075010
4432.792040
4428.509825
4414.986903
4442.986079
4408.201968
4438.842823
4473.102873
4390.693691
4457.006202
4449.542169
4364.790262
4465.405846
4414.612104
4432.508256
4415.005825
4419.176466
4436.100393
4379.998719
4456.551597
4427.821085
4403.679716
4437.506196
4434.960225
4427.357959
4423.764478
4433.531173
4414.263286
4436.681123
4444.999424
4409.960244
4455.593426
4402.301958
4441.447476
4455.084541
4387.886999
4428.927544
4463.431540
4414.906489
4387.492477
4432.088253
4434.812654
4431.407553
4426.005510
4415.478153
4420.545308
4435.127135
4424.670780
4472.504351
4410.889204
4388.873425
4445.781211
4443.978587
4430.271574
4417.938990
4430.278594
4425.859536
4424.959999
4439.679161
4414.553240
4419.815804
4438.461630
4403.700913
4442.626266
4432.362674
4426.266150
4454.278873
4420.445406
4381.358299
4456.442887
4446.330438
4420.083731
4460.477123
4411.933311
4437.649910
4417.886287
4424.701292
4432.869218
4421.668230
4432.647490
4465.866384
4379.914381
4396.664963
4473.764703
4444.911015
4423.339474
4424.992447
4441.494680
4428.832449
4428.147796
4433.682838
4425.774150
4439.620603
4427.976478
4443.748370
4416.575874
4418.690769
4450.465110
4395.043801
4442.480625
4428.649858
4427.078338
4467.983324
4390.022576
4457.958020
4401.679251
4410.701715
4429.837677
4432.682448
4434.186487
4401.145023
4427.028763
4464.365097
4457.695607
4413.800374
4424.073632
4451.994351
4432.629623
4426.875186
4420.358999
4425.726711
4432.291635
4424.717842
4405.869196
4445.978149
4397.446597
4450.454413
4441.622249
4403.861975
4451.061912
4430.254467
4433.781101
4372.992003
4437.064290
4390.580146
4435.827246
4432.002098
4393.181202
4440.937697
4417.231652
4426.930033
4450.915859
4447.758678
4405.922376
4335.315080
4465.034589
4387.511318
4415.682958
4436.668181
4433.407390
4435.611325
4447.133566
4411.013767
4435.171997
4434.755461
4424.804071
4431.240325
4413.546940
4417.945126
4418.503999
4435.156292
4439.370651
4404.557453
4446.870928
4395.017400
4458.773708
4493.019049
4417.635140
4434.972018
4433.570935
4410.167683
4415.988331
4423.556022
4431.224634
4430.095169
4480.146136
4480.163855
4483.799340
4452.095740
4435.420542
4436.936609
4424.472510
4411.908921
4439.701581
4422.112858
4424.176113
4412.283596
4450.600346
4410.867519
4430.840895
4450.747084
4409.149265
4426.030590
4429.585224
4384.698401
4416.816724
4504.247832
4569.484922
4386.083469
4375.198607
4420.073149
4416.837526
4456.878453
4462.225739
4387.384768
4448.240256
4411.232121
4405.456835
4405.322911
4448.287077
4434.924358
4432.672763
4436.481097
4442.228168
4431.568188
4413.468010
4431.031940
4452.824187
4408.337705
4422.667796
4437.412939
4421.579734
4447.166550
4426.955018
4444.489160
4413.304600
4492.818432
4357.387369
4331.091710
4479.921719
4393.896198
4412.213915
4436.608929
4423.474544
4492.137473
4444.020289
4408.088155
4435.088808
4396.532488
4423.372044
4411.800336
4433.317174
4426.071720
4431.554748
4411.718490
4437.813628
4432.101294
4414.395105
4420.618449
4441.023500
4439.555991
4420.564291
4411.562742
4446.525864
4384.405558
4436.420608
4444.363124
4391.633009
4483.656213
4478.498852
4420.511226
4406.180902
4424.505769
4444.895118
4418.898111
4369.815621
4456.197414
4451.510163
4407.659235
4399.318113
4434.594015
4428.280751
4433.648553
4431.558371
4438.644224
4435.961503
4439.565852
4419.264290
4435.882311
4436.096940
4413.405395
4406.763423
4454.325286
4430.996571
4412.047887
4462.347665
4414.213502
4435.052272
4381.204227
4490.131415
4352.946940
4368.527931
4423.695409
4426.759014
4439.093560
4438.402162
4394.299082
4438.468727
4412.220267
4447.637741
4458.471909
4430.406485
4433.673457
4435.016422
4427.614894
4421.194112
4432.180164
4427.917526
4432.687755
4434.371282
4408.068777
4438.872608
4457.057982
4406.707114
4426.363272
4426.639538
4425.699603
4398.489773
4456.960711
4356.173075
4462.034035
4403.172979
4444.463002
4388.431162
4431.335181
4429.630399
4442.472093
4456.929316
4407.277727
4467.198224
4454.442660
4411.691122
4419.685868
4422.455116
4430.550128
4423.180751
4439.952124
4435.540586
4427.008806
4440.856752
4422.845178
4438.688787
4412.108201
4408.042390
4432.090266
4448.505196
4406.449664
4438.381504
4422.233157
4455.561433
4388.163397
4451.005934
4434.180993
4581.940997
4370.984137
4483.503738
4433.956880
4435.669150
4429.458777
4395.989732
4453.647522
4403.494005
4421.003564
4441.351937
4402.487543
4429.007247
4432.583606
4428.755769
4415.958932
4433.123715
4424.244862
4423.643803
4436.136232
4418.159971
4439.015447
4423.762304
4405.539264
4424.042726
4427.445392
4408.835196
4458.458483
4457.832001
4468.166162
4362.600937
4377.294902
4503.790148
4406.627116
4426.470038
4454.736689
4438.250891
4378.364718
4419.156827
4442.595457
4461.917583
4407.884923
4394.913806
4429.658849
4433.884209
4425.699661
4436.141697
4440.597357
4422.759843
4430.012664
4411.546560
4417.530064
4438.879684
4407.113607
4444.374460
4461.221889
4422.754504
4406.312301
4440.513885
4420.293010
4444.334378
4399.550635
4458.352190
4410.944037
4445.967747
4411.617636
4426.132962
4433.956616
4426.114615
4401.803969
4453.812200
4358.525570
4409.002692
4452.093734
4429.201246
4428.312714
4429.059640
4430.131893
4409.204248
4430.631776
4421.032303
4447.095720
4427.484055
4423.488369
4422.643626
4395.298096
4468.826330
4394.477607
4404.078226
4456.152168
4380.444492
4404.106554
4433.315189
4445.991787
4421.668794
4425.679788
4438.064613
4431.464379
4412.572470
4437.568587
4482.106266
4375.697308
4494.418482
4350.572690
4444.088848
4430.150848
4430.859717
4429.868466
4429.664688
4432.408702
4446.242537
4411.499527
4405.108787
4398.474075
4441.578768
4414.258668
4435.819232
4449.914453
4442.139631
4433.485315
4413.112527
4437.894704
4421.757206
4402.308117
4443.339042
4420.646662
4418.989273
4471.090869
4394.100549
4434.803160
4469.009655
4443.570810
4370.210259
4457.471675
4438.175755
4453.206201
4427.328611
4427.803501
4426.124785
4424.834150
4414.463675
4415.027211
4434.751083
4437.756360
4432.946238
4428.143340
4402.064467
4435.719614
4401.214695
4415.948955
4404.689524
4419.093593
4407.950438
4458.302046
4438.840018
4490.997299
4407.538125
4408.689667
4448.764906
4393.184621
4435.516759
4441.205556
4448.942529
4444.721158
4452.228484
4430.348379
4454.178078
4428.739680
4430.119918
4427.715389
4432.791471
4432.749698
4436.180660
4411.375090
4397.718956
4419.518132
4424.587568
4438.946707
4443.259271
4432.654675
4427.268572
4434.048026
4448.703618
4390.202845
4463.754789
4362.929070
4409.966582
4432.439022
4406.042850
4458.415330
4436.678809
4416.082540
4401.577079
4424.159743
4422.573862
4399.941761
4415.978561
4414.993987
4422.496588
4433.138602
4423.316717
4421.322573
4408.143755
4427.338923
4426.021460
4442.947256
4440.438092
4405.492368
4413.951809
4423.080475
4420.937697
4426.753902
4418.004349
4424.419434
4433.226103
4469.605338
4405.781635
4448.794962
4421.222952
4528.521562
4413.159465
4364.414064
4449.001613
4451.597796
4421.104647
4428.968142
4494.857984
4410.583979
4448.782655
4427.077660
4435.790280
4420.864762
4436.394603
4444.612950
4424.307031
4427.648775
4406.322057
4402.198954
4443.252884
4427.283664
4441.553250
4403.521465
4444.257831
4399.873650
4465.494673
4389.699194
4477.657496
4401.162863
4428.835353
4419.935335
4419.005361
4423.700825
4428.662612
4454.184022
4423.685235
4427.249568
4435.445140
4406.980509
4380.630470
4433.306830
4429.003451
4427.091880
4425.928134
4421.660009
4416.600323
4435.032985
4427.622118
4438.753990
4434.975712
4426.776165
4393.346996
4443.238934
4423.065311
4454.364467
4432.111176
4424.193800
4401.058574
4450.091397
4433.421639
4431.232277
4408.805735
4398.984568
4418.799885
4424.423649
4483.489648
4401.025372
4423.008470
4436.742282
4373.412236
4436.505293
4407.835750
4425.244589
4423.348973
4435.733547
4436.464187
4436.190580
4435.100052
4407.140420
4434.224996
4398.931386
4425.451904
4454.701936
4413.651892
4437.019039
4392.834995
4450.039700
4430.755593
4407.693083
4357.546769
4385.472188
4461.870057
4441.740328
4406.955181
4400.610701
4398.560370
4459.820100
4398.353652
4414.269181
4457.268568
4452.917115
4428.120942
4460.812300
4434.836770
4433.299279
4422.738757
4417.783089
4419.258023
4429.861578
4440.429914
4415.814039
4440.372523
4414.940719
4423.742192
4413.377912
4441.669147
4430.767029
4426.366401
4429.276321
4418.414697
4486.574670
4460.442051
4436.432017
4445.042629
4514.512543
4428.555224
4418.009226
4441.468743
4433.611718
4415.744107
4433.552303
4416.680273
4420.041507
4410.991567
4425.096350
4427.683865
4432.460003
4442.560112
4441.899391
4422.402904
4433.528233
4406.175163
4447.225767
4423.169692
4419.678406
4426.998804
4423.731976
4418.554408
4423.712341
4439.179363
4394.172187
4439.055897
4388.602710
4380.226199
4431.336674
4431.814705
4465.824931
4451.150234
4483.318451
4386.928115
4411.067897
4419.967008
4465.058613
4351.566689
4422.779590
4429.469784
4429.907525
4433.312016
4404.375246
4433.292215
4436.332136
4414.786329
4445.426280
4398.165444
4424.890142
4450.076123
4419.039061
4425.451398
4446.481739
4428.224385
4440.635838
4412.749377
4381.272619
4468.717323
4463.363980
4447.631767
4400.506051
4405.886779
4456.348231
4400.049464
4429.386693
4378.994014
4471.528755
4429.347795
4453.719884
4422.606358
4440.500111
4429.896468
4426.244159
4442.488109
4437.291461
4419.117031
4409.847929
4424.987209
4426.429851
4442.637645
4388.038491
4452.539977
4411.808696
4427.550588
4384.506040
4435.385337
4450.901757
4463.637875
4345.467005
4471.083855
4459.651659
4466.458083
4492.591297
4427.022694
4459.981155
4435.119982
4447.405114
4440.470271
4392.305980
4391.379538
4437.348318
4431.413473
4426.437888
4422.446068
4417.609517
4413.262517
4449.244020
4395.494634
4437.019678
4397.242294
4438.810366
4412.675747
4447.482348
4395.585542
4456.065249
4418.319626
4429.475609
4382.535542
4446.621059
4310.684987
4499.942950
4541.761727
4422.507102
4399.378390
4501.705645
4367.637316
4407.815452
4393.539282
4469.446796
4349.289368
4451.905439
4445.269720
4427.419435
4436.251543
4433.096012
4427.663332
4436.075740
4432.287161
4425.647120
4430.978438
4447.912787
4409.280769
4398.912864
4410.286086
4441.670993
4419.561877
4403.349128
4455.798361
4389.602407
4450.460402
4455.772085
4505.047214
4428.970366
4422.631475
4371.043204
4419.011050
4400.218750
4432.308309
4434.926221
4471.555174
4437.109027
4375.892277
4452.907341
4420.556833
4429.912426
4421.698617
4426.546972
4408.852233
4434.557175
4426.858294
4406.666520
4389.565501
4451.339421
4442.215323
4433.073793
4410.670176
4438.922568
4438.726297
4429.759495
4441.336845
4446.239792
4440.755189
4474.105162
4612.881502
4469.921511
4509.195190
4427.370488
4444.792168
4434.979391
4378.900128
4424.258773
4478.994024
4427.570408
4416.238132
4424.116087
4437.413360
4423.413115
4436.992044
4420.813063
4424.409922
4434.526354
4459.030679
4431.811341
4414.548695
4395.082832
4406.981637
4438.255704
4431.363240
4389.292367
4427.087748
4411.360688
4409.949895
4420.493481
4424.392005
4397.124372
4423.296288
4429.693448
4426.420732
4469.574339
4476.348840
4357.904972
4390.145853
4498.097650
4479.802596
4411.230146
4423.605657
4432.148833
4399.631029
4429.588466
4421.518353
4434.105654
4397.140849
4447.080418
4411.539660
4448.847774
4425.698082
4445.450906
4424.929655
4443.153631
4441.238976
4444.206553
4400.165359
4431.899483
4462.027174
4456.822834
4422.984867
4457.853180
4368.249418
4487.114240
4434.662612
4447.478359
4485.697617
4428.140167
4367.810964
4407.328332
4392.959552
4421.198032
4420.397811
4440.115253
4440.579125
4417.569466
4427.296328
4422.937406
4420.919119
4407.985439
4432.276765
4409.494947
4420.472051
4416.906374
4412.744566
4425.988504
4425.799253
4441.802532
4352.712532
4443.896081
4488.624117
4406.259726
4456.701057
4455.764718
4402.281042
4440.800497
4464.133414
4391.634499
4514.966053
4372.055037
4464.413446
4406.543071
4422.890815
4428.882914
4416.309687
4413.005150
4435.743595
4415.225551
4406.667009
4436.037510
4429.025528
4427.093869
4410.780711
4419.596749
4399.967672
4427.918014
4422.317904
4438.727817
4403.514653
4408.115920
4436.614228
4421.222691
4450.332921
4421.297425
4455.962112
4370.844734
4458.846573
4430.160966
4467.851323
4425.979761
4363.833714
4387.225737
4419.320905
4423.248523
4426.351896
4429.862294
4430.846454
4435.930601
4408.671774
4458.793684
4424.429365
4432.621226
4413.807361
4417.414657
4460.170443
4400.592778
4411.607794
4422.499570
4423.850214
4455.975552
4397.208436
4433.374022
4451.343155
4409.468241
4432.038535
4483.923146
4397.314215
4360.806384
4486.597066
4441.975306
4396.510214
4466.189978
4471.090123
4415.515433
4424.408509
4421.289855
4416.850144
4424.282060
4419.749537
4442.374886
4397.679444
4431.785442
4420.576949
4425.881156
4387.683995
4440.455234
4443.592765
4429.173031
4409.179049
4445.147244
4397.574744
4426.780075
4396.729927
4425.699336
4414.773039
4475.159353
4453.579578
4485.298662
4467.122151
4439.470068
4407.870077
4384.832613
4462.625184
4361.030228
4416.848581
4420.481696
4420.452807
4437.635288
4427.569001
4413.826586
4438.705628
4432.648199
4420.221277
4424.650718
4427.051249
4405.859167
4421.793065
4413.834479
4410.760860
4419.568172
4424.847851
4392.539549
4454.643180
4423.295787
4490.964987
4431.088400
4374.967014
4479.005863
4444.892482
4466.565264
4442.944327
4459.209263
4459.451814
4476.451891
4413.147478
4402.010664
4418.236497
4426.596955
4410.925610
4416.604241
4439.830835
4396.306864
4428.180058
4429.190240
4432.603447
4420.817854
4423.379538
4425.541331
4405.789983
4429.544750
4442.583529
4381.878081
4420.036774
4405.237238
4360.516534
4437.254974
4440.726598
4426.896148
4475.904559
4454.981763
4465.023218
4419.767260
4459.449935
4426.319462
4453.315153
4442.426580
4414.219532
4420.871630
4427.073475
4434.056148
4412.865439
4439.040685
4427.903612
4411.608825
4403.623607
4422.750319
4446.086523
4419.641496
4446.248195
4435.567871
4431.565995
4443.089628
4437.648525
4395.916698
4424.935149
4481.213437
4451.839505
4410.378919
4402.368469
4441.784932
4470.628297
4439.084099
4429.473289
4455.005283
4373.189988
4450.050144
4381.883378
4450.061602
4419.951175
4427.621018
4419.061038
4426.864845
4401.337457
4442.632028
4435.640839
4430.129461
4399.129834
4442.503679
4419.044772
4415.080818
4400.747992
4415.047292
4405.980501
4454.896843
4394.067216
4503.100923
4385.574333
4331.875002
4386.675856
4473.843718
4484.862927
4451.595881
4436.246497
4457.604085
4452.553824
4341.479247
4440.496847
4423.250502
4385.405734
4428.780118
4433.594730
4423.997524
4432.294217
4426.903814
4419.603568
4411.759442
4416.617520
4405.180470
4439.894746
4404.562778
4441.519758
4447.534808
4441.727495
4425.624423
4433.221202
4463.922993
4393.173543
4377.072145
4560.025062
4375.875123
4390.999318
4463.369852
4451.049484
4423.487205
4451.212517
4427.399037
4480.247089
4471.449607
4393.576031
4426.849759
4434.155932
4425.501741
4430.709967
4414.682468
4410.873468
4424.028781
4407.091722
4428.754797
4417.367321
4424.789305
4430.647816
4408.894801
4395.731111
4424.372423
4429.997452
4411.836799
4454.818967
4466.655993
4403.694203
4439.411459
4471.664281
4607.367767
4483.254779
4481.722452
4469.485102
4438.103832
4455.851476
4481.322968
4476.927700
4437.838075
4462.683300
4430.738572
4420.065725
4434.532241
4432.888211
4421.082043
4437.957148
4430.086380
4414.825925
4436.584968
4396.944996
4435.888999
4417.868370
4432.454806
4450.205633
4428.263390
4412.187221
4398.405860
4426.738158
4455.192926
4422.765753
4417.624472
4415.462657
4475.487304
4469.288344
4457.248992
4451.834811
4443.641054
4401.279300
4373.116765
4363.933408
4350.787621
4425.628998
4435.478221
4416.379905
4410.662053
4440.621582
4411.861666
4448.351543
4404.486177
4440.521092
4435.076210
4423.878888
4414.582827
4402.763027
4420.937439
4413.931259
4445.775663
4432.717321
4374.793051
4466.429040
4421.143291
4558.084153
4543.444083
4469.057913
4453.687991
4460.675363
4448.900090
4417.805110
4449.331789
4487.176612
4412.338545
4431.391411
4426.024892
4422.728441
4434.894790
4418.382213
4431.731154
4396.878770
4432.199552
4407.483543
4417.895791
4421.542425
4410.771610
4431.679987
4396.586179
4438.139320
4433.892123
4418.383641
4411.187048
4454.356551
4432.991569
4292.738717
4470.110838
4420.992716
4476.117712
4447.926363
4437.932250
4458.848267
4425.990371
4428.622321
4456.681579
4392.753378
4415.369412
4431.408394
4432.985547
4420.956196
4435.638662
4412.961519
4446.089352
4441.791466
4412.528295
4447.685790
4411.342681
4441.791596
4405.911660
4441.738254
4453.277403
4396.589124
4437.453683
4456.667486
4418.747420
4429.558078
4428.947969
4418.744201
4523.210515
4424.893207
4447.657126
4452.851895
4490.753215
4446.010311
4452.138539
4406.561060
4420.617999
4378.077756
4424.793359
4430.154789
4412.926664
4422.564995
4424.998177
4423.905612
4418.112235
4433.739426
4413.359144
4428.113213
4417.070135
4441.299526
4402.338038
4422.350743
4398.514901
4421.792517
4430.057602
4445.624674