# vtk DataFile Version 2.0
mfree iwf
ASCII

DATASET UNSTRUCTURED_GRID
POINTS 6231 float
0.000000 0.000300 0.000000
0.000000 0.000310 0.000000
0.000000 0.000320 0.000000
0.000000 0.000330 0.000000
0.000000 0.000340 0.000000
0.000000 0.000350 0.000000
0.000001 0.000360 0.000000
0.000001 0.000370 0.000000
0.000001 0.000380 0.000000
0.000001 0.000390 0.000000
0.000001 0.000400 0.000000
0.000001 0.000410 0.000000
0.000001 0.000420 0.000000
0.000001 0.000430 0.000000
0.000002 0.000440 0.000000
0.000002 0.000450 0.000000
0.000002 0.000460 0.000000
0.000002 0.000471 0.000000
0.000002 0.000480 0.000000
0.000002 0.000492 0.000000
0.000006 0.000501 0.000000
0.000455 0.000767 0.000000
0.000502 0.000832 0.000000
0.000466 0.000782 0.000000
0.000512 0.000843 0.000000
0.000529 0.000858 0.000000
0.000571 0.000883 0.000000
0.000578 0.000885 0.000000
0.000591 0.000886 0.000000
0.000604 0.000890 0.000000
0.000637 0.000902 0.000000
0.000010 0.000300 0.000000
0.000010 0.000310 0.000000
0.000010 0.000320 0.000000
0.000010 0.000330 0.000000
0.000010 0.000340 0.000000
0.000010 0.000350 0.000000
0.000011 0.000360 0.000000
0.000011 0.000370 0.000000
0.000011 0.000380 0.000000
0.000011 0.000390 0.000000
0.000011 0.000400 0.000000
0.000011 0.000410 0.000000
0.000011 0.000420 0.000000
0.000011 0.000430 0.000000
0.000012 0.000440 0.000000
0.000012 0.000451 0.000000
0.000012 0.000460 0.000000
0.000012 0.000472 0.000000
0.000013 0.000478 0.000000
0.000010 0.000492 0.000000
0.000013 0.000498 0.000000
0.000547 0.000864 0.000000
0.000559 0.000870 0.000000
0.000567 0.000874 0.000000
0.000574 0.000875 0.000000
0.000591 0.000877 0.000000
0.000602 0.000881 0.000000
0.000616 0.000884 0.000000
0.000626 0.000889 0.000000
0.000632 0.000891 0.000000
0.000634 0.000897 0.000000
0.000020 0.000300 0.000000
0.000020 0.000310 0.000000
0.000020 0.000320 0.000000
0.000020 0.000330 0.000000
0.000020 0.000340 0.000000
0.000020 0.000350 0.000000
0.000020 0.000360 0.000000
0.000021 0.000370 0.000000
0.000020 0.000380 0.000000
0.000022 0.000390 0.000000
0.000020 0.000400 0.000000
0.000022 0.000410 0.000000
0.000020 0.000420 0.000000
0.000022 0.000431 0.000000
0.000020 0.000440 0.000000
0.000023 0.000451 0.000000
0.000021 0.000460 0.000000
0.000022 0.000470 0.000000
0.000021 0.000481 0.000000
0.000024 0.000494 0.000000
0.000020 0.000497 0.000000
0.000523 0.000839 0.000000
0.000545 0.000857 0.000000
0.000554 0.000864 0.000000
0.000560 0.000863 0.000000
0.000572 0.000862 0.000000
0.000584 0.000871 0.000000
0.000610 0.000877 0.000000
0.000623 0.000883 0.000000
0.000635 0.000879 0.000000
0.000642 0.000880 0.000000
0.000030 0.000300 0.000000
0.000030 0.000310 0.000000
0.000030 0.000320 0.000000
0.000030 0.000330 0.000000
0.000030 0.000340 0.000000
0.000031 0.000350 0.000000
0.000030 0.000360 0.000000
0.000030 0.000370 0.000000
0.000031 0.000380 0.000000
0.000031 0.000390 0.000000
0.000031 0.000400 0.000000
0.000031 0.000411 0.000000
0.000031 0.000420 0.000000
0.000032 0.000430 0.000000
0.000031 0.000440 0.000000
0.000031 0.000450 0.000000
0.000031 0.000459 0.000000
0.000036 0.000473 0.000000
0.000030 0.000478 0.000000
0.000033 0.000488 0.000000
0.000032 0.000497 0.000000
0.000063 0.000500 0.000000
0.000542 0.000850 0.000000
0.000559 0.000849 0.000000
0.000585 0.000863 0.000000
0.000594 0.000860 0.000000
0.000596 0.000871 0.000000
0.000605 0.000866 0.000000
0.000614 0.000870 0.000000
0.000623 0.000871 0.000000
0.000645 0.000872 0.000000
0.000040 0.000300 0.000000
0.000040 0.000310 0.000000
0.000040 0.000320 0.000000
0.000040 0.000330 0.000000
0.000040 0.000340 0.000000
0.000040 0.000350 0.000000
0.000040 0.000360 0.000000
0.000041 0.000370 0.000000
0.000041 0.000380 0.000000
0.000040 0.000390 0.000000
0.000042 0.000399 0.000000
0.000041 0.000410 0.000000
0.000042 0.000420 0.000000
0.000040 0.000431 0.000000
0.000042 0.000439 0.000000
0.000043 0.000450 0.000000
0.000043 0.000460 0.000000
0.000037 0.000469 0.000000
0.000045 0.000478 0.000000
0.000043 0.000496 0.000000
0.000040 0.000498 0.000000
0.000433 0.000602 0.000000
0.000553 0.000846 0.000000
0.000569 0.000852 0.000000
0.000578 0.000850 0.000000
0.000581 0.000857 0.000000
0.000604 0.000855 0.000000
0.000626 0.000863 0.000000
0.000632 0.000855 0.000000
0.000635 0.000869 0.000000
0.000646 0.000863 0.000000
0.000050 0.000300 0.000000
0.000050 0.000310 0.000000
0.000050 0.000319 0.000000
0.000050 0.000331 0.000000
0.000050 0.000340 0.000000
0.000051 0.000350 0.000000
0.000051 0.000360 0.000000
0.000049 0.000370 0.000000
0.000052 0.000379 0.000000
0.000050 0.000390 0.000000
0.000053 0.000400 0.000000
0.000049 0.000411 0.000000
0.000053 0.000420 0.000000
0.000051 0.000430 0.000000
0.000054 0.000440 0.000000
0.000047 0.000451 0.000000
0.000055 0.000458 0.000000
0.000053 0.000470 0.000000
0.000056 0.000483 0.000000
0.000049 0.000488 0.000000
0.000050 0.000498 0.000000
0.000535 0.000853 0.000000
0.000501 0.000823 0.000000
0.000567 0.000843 0.000000
0.000586 0.000843 0.000000
0.000597 0.000850 0.000000
0.000613 0.000858 0.000000
0.000608 0.000846 0.000000
0.000620 0.000855 0.000000
0.000637 0.000857 0.000000
0.000648 0.000852 0.000000
0.000060 0.000300 0.000000
0.000060 0.000310 0.000000
0.000061 0.000321 0.000000
0.000059 0.000330 0.000000
0.000062 0.000339 0.000000
0.000059 0.000350 0.000000
0.000062 0.000360 0.000000
0.000060 0.000370 0.000000
0.000063 0.000381 0.000000
0.000059 0.000390 0.000000
0.000064 0.000400 0.000000
0.000060 0.000409 0.000000
0.000064 0.000419 0.000000
0.000057 0.000430 0.000000
0.000066 0.000440 0.000000
0.000060 0.000449 0.000000
0.000066 0.000460 0.000000
0.000055 0.000472 0.000000
0.000064 0.000475 0.000000
0.000068 0.000486 0.000000
0.000058 0.000496 0.000000
0.000527 0.000848 0.000000
0.000544 0.000841 0.000000
0.000566 0.000833 0.000000
0.000576 0.000839 0.000000
0.000592 0.000835 0.000000
0.000603 0.000836 0.000000
0.000630 0.000841 0.000000
0.000621 0.000845 0.000000
0.000638 0.000845 0.000000
0.000649 0.000843 0.000000
0.000070 0.000300 0.000000
0.000070 0.000310 0.000000
0.000070 0.000319 0.000000
0.000070 0.000330 0.000000
0.000071 0.000340 0.000000
0.000068 0.000351 0.000000
0.000076 0.000356 0.000000
0.000067 0.000371 0.000000
0.000074 0.000376 0.000000
0.000069 0.000390 0.000000
0.000074 0.000400 0.000000
0.000068 0.000411 0.000000
0.000075 0.000421 0.000000
0.000068 0.000430 0.000000
0.000075 0.000438 0.000000
0.000066 0.000452 0.000000
0.000077 0.000459 0.000000
0.000073 0.000470 0.000000
0.000076 0.000486 0.000000
0.000068 0.000496 0.000000
0.000076 0.000496 0.000000
0.000433 0.000590 0.000000
0.000534 0.000837 0.000000
0.000556 0.000836 0.000000
0.000584 0.000827 0.000000
0.000595 0.000842 0.000000
0.000611 0.000832 0.000000
0.000619 0.000840 0.000000
0.000623 0.000830 0.000000
0.000639 0.000836 0.000000
0.000650 0.000833 0.000000
0.000080 0.000300 0.000000
0.000080 0.000310 0.000000
0.000080 0.000321 0.000000
0.000081 0.000331 0.000000
0.000080 0.000340 0.000000
0.000080 0.000349 0.000000
0.000075 0.000364 0.000000
0.000083 0.000368 0.000000
0.000081 0.000384 0.000000
0.000078 0.000390 0.000000
0.000087 0.000396 0.000000
0.000079 0.000409 0.000000
0.000084 0.000417 0.000000
0.000079 0.000430 0.000000
0.000087 0.000445 0.000000
0.000077 0.000447 0.000000
0.000086 0.000463 0.000000
0.000074 0.000470 0.000000
0.000087 0.000473 0.000000
0.000085 0.000482 0.000000
0.000084 0.000495 0.000000
0.000518 0.000842 0.000000
0.000495 0.000825 0.000000
0.000569 0.000823 0.000000
0.000577 0.000830 0.000000
0.000593 0.000824 0.000000
0.000603 0.000824 0.000000
0.000612 0.000822 0.000000
0.000631 0.000828 0.000000
0.000640 0.000826 0.000000
0.000651 0.000823 0.000000
0.000090 0.000300 0.000000
0.000090 0.000310 0.000000
0.000090 0.000319 0.000000
0.000090 0.000329 0.000000
0.000090 0.000340 0.000000
0.000092 0.000352 0.000000
0.000089 0.000359 0.000000
0.000092 0.000369 0.000000
0.000088 0.000379 0.000000
0.000092 0.000388 0.000000
0.000086 0.000406 0.000000
0.000094 0.000408 0.000000
0.000088 0.000425 0.000000
0.000096 0.000426 0.000000
0.000088 0.000436 0.000000
0.000097 0.000456 0.000000
0.000087 0.000453 0.000000
0.000097 0.000471 0.000000
0.000106 0.000480 0.000000
0.000089 0.000495 0.000000
0.000095 0.000495 0.000000
0.000433 0.000616 0.000000
0.000530 0.000830 0.000000
0.000517 0.000830 0.000000
0.000548 0.000832 0.000000
0.000586 0.000816 0.000000
0.000606 0.000816 0.000000
0.000622 0.000820 0.000000
0.000630 0.000817 0.000000
0.000641 0.000816 0.000000
0.000651 0.000813 0.000000
0.000100 0.000300 0.000000
0.000100 0.000310 0.000000
0.000100 0.000320 0.000000
0.000101 0.000331 0.000000
0.000100 0.000340 0.000000
0.000099 0.000349 0.000000
0.000101 0.000360 0.000000
0.000100 0.000372 0.000000
0.000101 0.000380 0.000000
0.000101 0.000393 0.000000
0.000100 0.000398 0.000000
0.000103 0.000409 0.000000
0.000100 0.000418 0.000000
0.000100 0.000435 0.000000
0.000110 0.000444 0.000000
0.000097 0.000445 0.000000
0.000107 0.000460 0.000000
0.000098 0.000467 0.000000
0.000095 0.000481 0.000000
0.000106 0.000491 0.000000
0.000101 0.000494 0.000000
0.000469 0.000787 0.000000
0.000474 0.000794 0.000000
0.000491 0.000819 0.000000
0.000577 0.000816 0.000000
0.000595 0.000813 0.000000
0.000604 0.000806 0.000000
0.000623 0.000810 0.000000
0.000617 0.000803 0.000000
0.000639 0.000809 0.000000
0.000650 0.000804 0.000000
0.000110 0.000300 0.000000
0.000110 0.000310 0.000000
0.000110 0.000320 0.000000
0.000110 0.000329 0.000000
0.000111 0.000339 0.000000
0.000110 0.000351 0.000000
0.000111 0.000360 0.000000
0.000110 0.000369 0.000000
0.000112 0.000378 0.000000
0.000110 0.000388 0.000000
0.000112 0.000400 0.000000
0.000111 0.000412 0.000000
0.000116 0.000423 0.000000
0.000107 0.000427 0.000000
0.000112 0.000434 0.000000
0.000106 0.000449 0.000000
0.000115 0.000461 0.000000
0.000111 0.000471 0.000000
0.000116 0.000480 0.000000
0.000111 0.000493 0.000000
0.000119 0.000492 0.000000
0.000442 0.000721 0.000000
0.000433 0.000635 0.000000
0.000526 0.000823 0.000000
0.000552 0.000822 0.000000
0.000545 0.000815 0.000000
[...]
POINT_DATA 6231
SCALARS density float 1
LOOKUP_TABLE default
4404.831140
4424.416854
4421.298909
4422.229712
4425.330676
4425.327183
4425.013285
4426.753815
4430.010442
4429.137009
4426.550969
4431.456955
4428.858702
4429.894658
4430.807335
4440.220217
4423.352720
4431.954722
4412.511303
4423.811522
4411.156721
4429.250641
4426.338608
4436.214968
4441.024349
4418.514581
4402.853722
4436.365573
4444.167522
4449.450987
4424.585118
4410.731672
4425.587735
4424.013923
4423.049788
4425.090482
4427.008262
4425.064133
4421.317664
4425.684259
4428.747446
4424.039120
4431.085885
4424.982997
4437.519155
4416.291882
4427.743256
4410.111048
4444.046857
4461.138066
4460.440815
4416.197708
4402.821585
4395.153603
4426.720988
4497.102741
4394.406496
4406.939684
4421.951620
4418.622733
4455.101300
4458.453053
4418.108297
4426.466318
4420.037689
4430.613449
4423.548426
4420.462364
4430.633320
4439.618762
4422.406404
4431.195085
4428.467992
4434.832099
4417.490993
4439.712103
4415.318173
4476.210906
4399.493315
4453.910006
4351.724938
4449.438745
4420.615634
4416.752771
4429.388816
4407.875517
4541.926012
4345.496645
4377.697291
4435.787469
4418.322702
4405.873307
4403.965756
4419.952718
4424.993845
4427.873930
4425.641598
4430.352000
4438.705511
4421.739294
4421.805327
4419.174445
4438.794368
4410.621386
4437.477151
4418.847035
4446.290006
4403.062068
4431.140348
4390.558850
4459.288811
4368.033248
4557.320528
4370.460664
4431.958549
4457.955899
4432.802771
4475.807448
4359.592833
4486.665646
4448.402973
4397.339567
4502.523315
4456.583810
4427.605274
4433.331425
4432.609833
4432.707110
4426.345122
4426.633369
4425.290596
4444.406595
4425.254230
4435.397277
4411.776412
4450.433415
4402.467659
4444.328347
4414.099373
4450.898332
4386.145152
4508.806011
4307.627036
4419.781771
4383.874471
4515.254962
4425.350189
4375.263992
4463.563517
4471.818042
4451.295385
4378.532136
4469.185675
4410.365478
4425.636057
4435.771950
4428.790220
4416.021186
4441.522790
4425.720411
4438.524637
4412.437272
4434.267369
4404.912962
4441.779630
4419.250611
4439.682117
4403.053531
4459.753347
4361.450493
4480.640537
4358.228517
4477.523629
4361.528873
4536.350612
4383.081127
4442.638267
4425.606139
4458.619156
4369.211500
4417.944620
4427.245159
4390.035239
4412.746557
4407.893459
4412.829119
4425.364299
4437.016554
4435.045644
4444.620450
4409.851501
4455.929885
4399.220157
4450.367043
4416.257939
4450.225184
4409.185992
4443.367481
4422.992616
4437.807030
4421.384721
4471.940382
4400.274017
4519.494469
4373.086650
4480.482838
4431.971665
4418.310239
4390.616037
4421.481917
4453.667500
4453.421733
4412.783056
4398.425721
4440.651751
4439.134058
4427.978731
4424.003813
4432.808389
4418.259051
4422.277909
4437.370315
4428.654794
4427.931348
4454.436820
4397.975897
4440.654269
4396.663552
4430.531997
4412.407698
4436.136236
4438.693670
4457.688318
4438.683696
4460.150111
4448.068581
4412.830462
4388.096516
4593.763723
4454.443277
4436.918251
4463.154977
4476.499043
4417.565692
4466.418475
4427.729044
4445.227927
4412.042883
4427.304987
4430.098430
4420.632358
4438.830103
4420.798360
4425.852639
4424.768100
4438.407432
4458.555317
4442.202628
4401.561473
4436.485443
4408.162248
4442.403677
4465.905607
4390.990038
4453.388985
4453.819778
4357.054950
4466.321165
4411.496811
4435.050055
4414.363313
4422.303379
4436.242034
4389.697860
4454.341993
4422.382736
4423.273877
4431.752638
4435.924498
4423.809319
4429.767921
4433.036986
4423.870940
4413.093284
4436.176238
4418.016985
4435.108075
4416.411165
4416.924754
4457.241276
4407.902882
4427.539790
4466.820475
4418.236555
4377.607976
4442.677621
4437.284046
4425.238078
4426.501109
4417.217931
4488.566629
4435.342006
4423.902140
4481.369371
4425.907337
4402.950869
4448.499205
4442.691332
4421.208802
4421.793669
4431.448403
4435.006635
4422.191666
4432.203493
4433.541699
4441.227895
4413.759847
4424.688882
4425.693724
4445.031095
4447.485038
4428.376817
4425.292841
4387.504214
4446.360622
4449.240259
4417.033232
4471.666957
4413.850308
4436.914048
4420.346682
4426.944636
4430.032886
4421.092452
4408.332917
4462.181201
4407.337299
4394.992841
4477.046102
4439.940806
4419.512480
4434.020582
4426.448139
4426.026652
4443.621448
4410.592520
4415.801933
4446.965111
4430.369381
4432.771743
4421.163873
4404.165458
4454.086310
4399.334404
4435.366725
4433.424754
4444.034058
4464.377927
4387.048024
4467.947709
4398.126843
4412.215140
4425.184008
4490.121579
4440.637456
4394.707642
4433.813471
4461.528942
4453.804203
4427.295087
4424.161945
4447.290540
4426.684245
4425.358227
4434.994263
4411.362688
4445.872211
4440.383217
4408.865539
4425.073679
4420.868165
4442.570471
4438.209396
4427.349217
4429.566034
4438.405059
4414.281432
4374.912002
4435.280337
4396.658934
4416.144526
4438.608667
4390.291031
4445.320593
4417.312772
4423.497359
4451.539883
4454.484878
4377.964786
4341.533593
4447.791381
4397.701338
4411.466520
4432.683003
4436.437803
4432.556229
4422.876544
4432.352233
4414.180522
4425.725102
4443.310616
4430.663935
4407.153099
4405.792847
4424.812825
4444.337396
4420.767298
4420.296993
4448.751702
4420.120104
4443.710454
4499.620036
4419.057358
4428.598819
4435.415164
4407.289846
4417.585414
4433.424576
4422.468947
4426.654788
4490.120679
4474.189977
4476.881651
4444.671764
4434.236308
4434.762658
4422.359427
4438.102259
4415.265930
4436.997793
4444.723479
4401.857006
4439.802235
4428.275533
4446.983986
4422.857682
4423.319688
4412.227769
4438.710639
4378.360963
4413.490150
4504.727360
4565.187027
4387.951881
4377.433672
4410.569640
4413.976989
4464.529966
4460.240354
4384.646949
4446.310828
4418.642269
4409.038453
4403.993447
4450.379273
4433.576988
4438.559405
4437.153192
4429.253463
4427.741055
4415.741506
4416.925322
4443.726184
4432.729734
4399.123666
4440.518318
4409.174898
4444.923699
4398.808914
4456.761045
4425.454044
4485.287012
4352.383513
4328.984039
4505.057876
4395.208039
4418.967436
4432.550289
4421.084807
4480.622715
4462.613118
4420.395195
4418.589904
4401.747076
4417.186741
4410.347744
4432.268233
4427.900936
4420.979262
4425.675566
4441.582260
4429.717288
4428.241334
4417.840343
4425.490290
4445.987292
4431.046053
4405.461418
4451.892961
4413.339205
4435.921980
4417.360340
4405.318080
4504.205963
4490.571898
4417.217009
4400.997887
4428.580800
4440.937207
4429.403953
4399.576631
4434.599542
4444.818049
4423.179418
4407.973488
4445.579751
4424.447117
4433.591703
4430.014180
4445.737945
4436.857484
4416.672454
4431.589239
4433.027329
4428.488451
4430.376561
4409.540659
4428.740952
4445.037125
4414.033470
4450.460729
4398.551891
4441.844211
4412.206308
4461.270227
4339.762405
4362.446521
4429.945909
4429.642961
4430.553286
4400.477198
4393.427579
4440.444182
4433.443160
4441.144202
4459.698888
4421.795706
4428.837577
4437.627219
4429.687005
4414.414314
4435.497287
4440.835772
4433.613518
4417.409232
4434.512841
4425.908992
4447.238735
4420.967557
4426.263613
4415.795848
4437.966468
4407.796212
4473.207307
4334.174994
4473.816954
4388.276146
4449.844262
4397.977858
4419.818617
4422.434349
4442.912826
4461.660780
4388.735712
4455.900023
4462.120005
4399.647452
4440.486172
4428.411149
4431.740792
4421.979339
4443.131579
4443.447416
4414.604833
4430.249223
4430.438464
4434.128124
4404.732718
4438.669299
4406.436985
4442.264694
4410.777275
4442.573319
4398.722256
4436.039367
4432.358932
4489.719286
4404.015274
4547.540327
4391.066157
4476.163833
4448.631509
4428.393789
4444.637198
4434.116371
4403.355477
4414.069781
4419.769580
4446.425676
4393.229756
4429.895979
4430.671127
4424.452684
4410.126682
4443.360429
4442.272897
4411.457465
4430.504943
4425.584467
4432.217985
4415.554452
4452.979251
4394.760207
4443.300882
4428.013651
4435.592975
4417.531637
4469.430154
4383.313707
4404.702377
4507.913431
4409.397167
4426.020658
4445.805415
4413.879488
4379.936404
4418.488745
4423.237389
4457.053290
4413.044477
4371.145415
4428.115089
4435.881774
4431.819761
4434.642255
4437.482385
4406.517223
4437.483176
4436.483990
4403.920378
4454.393503
4410.244596
4420.699218
4448.958068
4421.888673
4405.577762
4458.757519
4384.650821
4471.621281
4392.487767
4474.233389
4416.562714
4439.129231
4410.070449
4396.505950
4427.103172
4439.150491
4416.299390
4453.707295
4337.597326
4384.355279
4451.980004
4428.181979
4429.020892
4420.642010
4433.043274
4400.727446
4451.065578
4422.977957
4429.533438
4449.376058
4404.154220
4437.280197
4416.613718
4442.047131
4417.827579
4425.732199
4427.601508
4407.895292
4428.595524
4396.164344
4448.574519
4428.720301
4430.120633
4450.380776
4469.878516
4413.571915
4438.845872
4508.154290
4376.893479
4514.375539
4363.363456
4438.399888
4430.740865
4434.797376
4430.135732
4434.883916
4435.893073
4435.183995
4401.308650
4412.985039
4439.703022
4402.621618
4444.083678
4427.732342
4408.821325
4463.464054
4426.837600
4402.685655
4445.715066
4432.339133
4422.078422
4407.123870
4419.065748
4427.059435
4467.835472
4407.590646
4448.402097
4449.234527
4407.320455
4361.472388
4473.987592
4444.423436
4439.462438
4428.225228
4426.244912
4424.050773
4415.258086
4418.979244
4411.327832
4455.139128
4447.480182
4393.513348
4454.896887
4393.810400
4431.641152
4414.179176
4413.273459
4386.200195
4456.743498
4398.241459
4425.565037
4452.469770
4510.489868
4423.723162
4412.204620
4426.128337
4350.639962
4451.592413
4450.828165
4473.153488
4405.967537
4454.112954
4431.247038
4463.611742
4434.029899
4422.982476
4439.596734
4437.915485
4431.292363
4446.044279
4393.827514
4416.405591
4418.936006
4440.757994
4422.376558
4448.093784
4421.371717
4427.135407
4438.238230
4450.249003
4394.051641
4486.606299
4368.796356
4411.110979
4430.952569
4399.217140
4471.045710
4421.977442
4408.687262
4417.814903
4430.902529
4434.571696
4422.269946
4413.887111
4412.807167
4425.950140
4429.492669
4423.401594
4412.487518
4416.679705
4422.005229
4441.817172
4432.796768
4434.363374
4390.946722
4416.078439
4403.613001
4427.069287
4429.060165
4406.103328
4447.243425
4422.875279
4424.565378
4381.374570
4465.077813
4440.054399
4616.765584
4523.937260
4373.532937
4443.942995
4428.077400
4448.012820
4429.383953
4480.980755
4398.514431
4440.251139
4427.566375
4438.433101
4428.185100
4436.720681
4455.294496
4409.836698
4442.149977
4387.654320
4432.542134
4439.549564
4427.902018
4437.929179
4424.083685
4421.799886
4417.866812
4440.355483
4405.615973
4462.105600
4421.335852
4428.071182
4426.721972
4411.760780
4399.548312
4437.854276
4472.165484
4441.892798
4431.210708
4426.239787
4450.143892
4379.492275
4430.751075
4432.603889
4424.885450
4424.492997
4414.533302
4423.325805
4435.526652
4415.971853
4451.755608
4427.766843
4402.848542
4404.202929
4436.381834
4420.770240
4440.811123
4412.672791
4447.832329
4391.614979
4435.382111
4431.425440
4429.428896
4409.224207
4379.340576
4397.056858
4392.409258
4458.470085
4436.308399
4424.451599
4447.855683
4408.184050
4445.626297
4415.199250
4429.935005
4420.766349
4439.474062
4447.267746
4428.990202
4443.722941
4400.543176
4445.040198
4394.807983
4445.858196
4451.409235
4397.616213
4441.760500
4388.456706
4481.517309
4382.876530
4447.722457
4354.851595
4389.992646
4476.722828
4441.506231
4407.697505
4430.443850
4436.051980
4457.513957
4430.198954
4422.439867
4440.086797
4406.978967
4436.656995
4453.753393
4431.231398
4435.320367
4418.120951
4411.732276
4426.958594
4414.946201
4449.308726
4399.788019
4443.820747
4401.647125
4414.487224
4416.885317
4455.014169
4386.961798
4437.523524
4410.756633
4416.372912
4487.254684
4461.307516
4434.721992
4444.380244
4475.591034
4447.332184
4408.155574
4478.663678
4466.262192
4392.642163
4435.389136
4399.614203
4425.746735
4404.515916
4429.682108
4430.222484
4437.472158
4441.037681
4447.829125
4412.762393
4454.054828
4395.952411
4457.340018
4421.346717
4439.288450
4420.364920
4419.987989
4445.367186
4422.542819
4431.247257
4392.921165
4450.222362
4391.213347
4371.083953
4434.007846
4446.040743
4441.397618
4468.118999
4458.571782
4393.264665
4441.350580
4422.104085
4464.818018
4328.783818
4427.799690
4433.749234
4428.138200
4430.749327
4406.123206
4422.252422
4439.567353
4392.906466
4454.811484
4391.921615
4421.587769
4441.324363
4417.396683
4423.141873
4429.408967
4405.856059
4443.207253
4420.335447
4383.430929
4463.442521
4468.289495
4451.416383
4396.480226
4393.421501
4455.881557
4431.553911
4397.688375
4404.166435
4442.770442
4453.915220
4450.335101
4418.285240
4441.578949
4428.772321
4435.817206
4445.811715
4429.007503
4441.435639
4393.576371
4454.786388
4407.924132
4434.780713
4395.746375
4462.478920
4406.639385
4434.078726
4394.922979
4431.245969
4444.468433
4474.748500
4343.338599
4472.040818
4458.068132
4524.599099
4481.922729
4426.633235
4459.673593
4439.892128
4434.385549
4405.823191
4355.806618
4390.466306
4436.274493
4431.684771
4421.543689
4423.273355
4410.196201
4421.355760
4421.344425
4439.804735
4392.047045
4415.115764
4449.796086
4391.742013
4440.457308
4381.477009
4469.737764
4405.766945
4435.699343
4376.775618
4448.110756
4294.257698
4484.522085
4494.333521
4422.488137
4461.557167
4464.681728
4429.691257
4439.703917
4417.169753
4492.278149
4371.091290
4486.943219
4447.110913
4422.155904
4431.755256
4443.705402
4429.314977
4440.932072
4423.864665
4440.075266
4426.246023
4461.205872
4406.783306
4398.997598
4430.502419
4432.466627
4415.816773
4400.987592
4466.608286
4365.759516
4477.766702
4450.823026
4513.308784
4431.496294
4425.510441
4432.649313
4437.803931
4434.260095
4423.141689
4445.969264
4444.278176
4393.550942
4385.605947
4454.142405
4421.278043
4433.426925
4404.727445
4429.242601
4425.247028
4450.058215
4393.868503
4391.202604
4374.777936
4454.682642
4450.980229
4427.936165
4396.384437
4453.011370
4433.580913
4428.052810
4449.876118
4443.165469
4449.490538
4475.765718
4606.000798
4467.044463
4385.966320
4448.058421
4445.640339
4450.837674
4452.979811
4447.628207
4447.484719
4435.406937
4415.018957
4423.865058
4437.373023
4430.190149
4436.191385
4396.079004
4399.275713
4456.752456
4459.564809
4453.843595
4408.067509
4383.659050
4440.567211
4437.019128
4436.222377
4386.980135
4437.057938
4436.069666
4389.882256
4438.143623
4423.358059
4391.156170
4421.375082
4479.444980
4424.150513
4495.100221
4423.015977
4464.220511
4422.604868
4458.959551
4446.075268
4407.751522
4424.776494
4424.841047
4403.615210
4419.928697
4450.654010
4405.422668
4398.873521
4449.571797
4390.077260
4458.567665
4421.828595
4425.745265
4390.589491
4448.978987
4455.087882
4432.441206
4383.438977
4425.910382
4474.022164
4449.354396
4419.661789
4470.418293
4454.204940
4480.689423
4424.234284
4442.314192
4456.102463
4378.338578
4365.262593
4427.386902
4393.838102
4422.493069
4416.673020
4448.251433
4434.753602
4414.651735
4433.448209
4431.024720
4429.054227
4427.037806
4439.829418
4402.278887
4416.632598
4418.567320
4394.935303
4457.087574
4405.070199
4429.720148
4325.194485
4424.204821
4519.226777
4412.737821
4473.874009
4430.307642
4518.675372
4474.269989
4480.239920
4469.788937
4479.331382
4460.183970
4470.803027
4402.300841
4418.953214
4434.350502
4403.408879
4420.815597
4419.002407
4400.707199
4417.675285
4409.153495
4436.190289
4398.436771
4426.864756
4437.920329
4391.553450
4432.045018
4435.543233
4429.603099
4411.379187
4408.963419
4466.327061
4462.265211
4527.340618
4459.785027
4379.730084
4452.578314
4458.623011
4425.386720
4444.289358
4455.607759
4376.355209
4410.054028
4415.908705
4421.178089
4433.103910
4426.056536
4419.551214
4450.281781
4420.455817
4456.373741
4426.177839
4415.733645
4422.783802
4436.140434
4422.556312
4408.635935
4417.043305
4414.777992
4433.646146
4461.852193
4395.656964
4418.209273
4446.294171
4412.593125
4419.454876
4462.613995
4484.522279
4455.797405
4386.641165
4377.065960
4442.832719
4482.897221
4438.744732
4420.095640
4423.369470
4419.615067
4426.116694
4419.752618
4406.014439
4444.196887
4389.765712
4452.964147
4417.902442
4395.492669
4383.655901
4436.845877
4438.946185
4417.514055
4414.915140
4426.054425
4401.242993
4416.218479
4408.242845
4398.000839
4443.944200
4456.035620
4460.300021
4483.607922
4426.232045
4470.821839
4448.792210
4381.051293
4454.000548
4352.508235
4414.193392
4423.728770
4421.363499
4426.865831
4432.477218
4413.986987
4444.028517
4422.139401
4430.504339
4423.444854
4438.511798
4422.670781
4407.287897
4406.207889
4420.605466
4413.023286
4417.761426
4426.027928
4433.560061
4431.812121
4432.817800
4483.974856
4482.902801
4468.804374
4445.033436
4439.388922
4427.960907
4437.263220
4420.802770
4447.308345
4389.141895
4404.838747
4419.994471
4432.013727
4413.174258
4420.354914
4435.009135
4391.338671
4434.323504
4419.948630
4430.927889
4440.199497
4406.940817
4426.649997
4425.668937
4428.740546
4440.456469
4406.987176
4437.976255
4403.741889
4451.296455
4410.164891
4481.519582
4452.931127
4460.255600
4438.225590
4459.068983
4458.454006
4462.775111
4393.530177
4403.027888
4424.341629
4426.523453
4417.560371
4419.037161
4434.489177
4410.029637
4438.850643
4431.772614
4421.444032
4419.402113
4420.290072
4431.564912
4423.065821
4443.808732
4422.039176
4420.623674
4415.201277
4426.295209
4438.840679
4399.140346
4455.537602
4415.992520
4457.401869
4437.727264
4463.710705
4458.934934
4451.708642
4454.959799
4457.069349
4442.688358
4435.428927
4427.634731
4494.036801
4424.239761
4430.291702
4428.017441
4420.794787
4409.290287
4431.274953
4421.260915
4431.261668
4390.617110
4440.474898
4426.871052
4397.159533
4440.389052
4432.127590
4425.705272
4438.727373
4451.073895
4433.736281
4441.793084
4419.677389
4458.241950
4461.334903
4456.665576
4454.712609
4443.326459
4417.409383
4461.063792
4465.334833
4475.361824
4416.475291
4387.263755
4427.639223
4426.929047
4415.122695
4431.966137
4434.404039
4405.698223
4429.922338
4425.144533
4413.898281
4434.350186
4405.648615
4430.513104
4425.980558
4411.915196
4426.369588
4395.172758
4434.884762
4461.560632
4416.702206
4448.556342
4410.288426
4447.826299
4440.023809
4446.981918
4443.723109
4447.445327
4404.388485
4459.378770
4464.360228
4413.346388
4437.132241
4425.866128
4431.237551
4439.744399
4414.323999
4410.582742
4422.355348
4414.464562
4416.629887
4421.255169
4420.851159
4418.113443
4425.000516
4422.032838
4427.767250
4421.486609
4437.968880
4394.531957
4448.531324
4442.542777
4427.319957
4447.868600
4454.386982
4443.864922
4429.969106
4429.476044
4451.993034
4452.870449
4431.099287
4478.514345
4436.033734
4447.966971
4440.821042
4417.062427
4432.829066
4428.639895
4425.806775
4440.390163
4418.696306
4431.170059
4438.364306
4409.423145
4425.076070
4411.162688
4415.705226
4444.699726
4403.134936
4442.975761
4428.336853
4438.191741
4455.215394
4427.507408
4450.385444
4423.271372
4435.604799
4459.839715
4435.590633
4454.027726
4453.855647
4438.033552
4493.211494
4447.616824
4372.217621
4430.281764
4427.388682
4424.378011
4419.995314
4427.679535
4403.012889
4452.278726
4414.426300
4434.553243
4433.000334
4394.735916
4436.193810
4425.385292
4414.083480
4432.076899
4425.669225
4420.710326
4423.771290
4402.010792
4425.635235
4474.214482
4397.028655
4424.046918
4408.358674
4467.552436
4424.221688
4384.267080
4484.527020
4430.414026
4466.602093
4489.315077
4428.142613
4425.699601
4449.186232
4408.291831
4433.603058
4419.004716
4420.461806
4402.620658
4406.640106
4445.812726
4419.634741
4440.200313
4422.123788
4409.882561
4432.528351
4417.476978
4412.834492
4433.318981
4417.490998
4431.288599
4405.357433
4459.269733
4449.700347
4402.924242
4427.314842
4421.083131
4448.861562
4447.254434
4415.703783
4460.788467
4446.329192
4429.230180
4423.192371
4402.216869
4442.378920
4419.429907
4441.765326
4413.531867
4424.340374
4442.106890
4390.666059
4431.089241
4420.473797
4440.138956
4418.046707
4408.372239
4421.602194
4444.449999
4428.010404
4432.465977
4427.346064
4442.155264
4456.927811
4406.480144
4434.098217
4434.508339
4425.063714
4386.458335
4484.696524
4501.999738
4429.863421
4482.312793
4428.818427
4423.004015
4434.823044
4424.512666
4435.530510
4408.220683
4450.661099
4417.473662
4433.405478
4444.261179
4440.791575
4421.222706
4414.736861
4438.733643
4430.327630
4408.054584
4433.438277
4432.588774