# vtk DataFile Version 2.0
mfree iwf
ASCII

DATASET UNSTRUCTURED_GRID
POINTS 6231 float
0.000000 0.000300 0.000000
0.000000 0.000310 0.000000
0.000000 0.000320 0.000000
0.000000 0.000330 0.000000
0.000000 0.000340 0.000000
0.000000 0.000350 0.000000
0.000000 0.000360 0.000000
0.000001 0.000370 0.000000
0.000001 0.000380 0.000000
0.000001 0.000390 0.000000
0.000001 0.000400 0.000000
0.000001 0.000410 0.000000
0.000001 0.000420 0.000000
0.000001 0.000430 0.000000
0.000001 0.000440 0.000000
0.000001 0.000450 0.000000
0.000002 0.000460 0.000000
0.000002 0.000470 0.000000
0.000002 0.000480 0.000000
0.000001 0.000492 0.000000
0.000006 0.000501 0.000000
0.001115 0.001149 0.000000
0.001189 0.001182 0.000000
0.001132 0.001155 0.000000
0.001202 0.001187 0.000000
0.001224 0.001191 0.000000
0.001273 0.001194 0.000000
0.001281 0.001192 0.000000
0.001293 0.001186 0.000000
0.001306 0.001183 0.000000
0.001335 0.001183 0.000000
0.000010 0.000300 0.000000
0.000010 0.000310 0.000000
0.000010 0.000320 0.000000
0.000010 0.000330 0.000000
0.000010 0.000340 0.000000
0.000010 0.000350 0.000000
0.000010 0.000360 0.000000
0.000011 0.000370 0.000000
0.000011 0.000380 0.000000
0.000011 0.000390 0.000000
0.000011 0.000400 0.000000
0.000011 0.000410 0.000000
0.000011 0.000420 0.000000
0.000011 0.000430 0.000000
0.000011 0.000440 0.000000
0.000011 0.000450 0.000000
0.000012 0.000460 0.000000
0.000011 0.000472 0.000000
0.000013 0.000478 0.000000
0.000009 0.000492 0.000000
0.000013 0.000498 0.000000
0.001243 0.001187 0.000000
0.001258 0.001187 0.000000
0.001266 0.001188 0.000000
0.001272 0.001186 0.000000
0.001288 0.001179 0.000000
0.001299 0.001177 0.000000
0.001313 0.001172 0.000000
0.001324 0.001173 0.000000
0.001330 0.001170 0.000000
0.001332 0.001179 0.000000
0.000020 0.000300 0.000000
0.000020 0.000310 0.000000
0.000020 0.000320 0.000000
0.000020 0.000330 0.000000
0.000021 0.000340 0.000000
0.000020 0.000350 0.000000
0.000021 0.000360 0.000000
0.000020 0.000370 0.000000
0.000020 0.000380 0.000000
0.000021 0.000390 0.000000
0.000020 0.000400 0.000000
0.000022 0.000410 0.000000
0.000020 0.000420 0.000000
0.000022 0.000430 0.000000
0.000020 0.000439 0.000000
0.000023 0.000451 0.000000
0.000021 0.000460 0.000000
0.000022 0.000470 0.000000
0.000021 0.000482 0.000000
0.000024 0.000494 0.000000
0.000020 0.000497 0.000000
0.001209 0.001177 0.000000
0.001239 0.001182 0.000000
0.001249 0.001184 0.000000
0.001254 0.001181 0.000000
0.001263 0.001174 0.000000
0.001278 0.001177 0.000000
0.001304 0.001169 0.000000
0.001319 0.001168 0.000000
0.001326 0.001160 0.000000
0.001333 0.001156 0.000000
0.000030 0.000300 0.000000
0.000030 0.000310 0.000000
0.000030 0.000320 0.000000
0.000031 0.000330 0.000000
0.000030 0.000339 0.000000
0.000031 0.000350 0.000000
0.000030 0.000360 0.000000
0.000030 0.000370 0.000000
0.000031 0.000380 0.000000
0.000031 0.000390 0.000000
0.000031 0.000400 0.000000
0.000031 0.000410 0.000000
0.000031 0.000419 0.000000
0.000032 0.000430 0.000000
0.000031 0.000440 0.000000
0.000031 0.000450 0.000000
0.000031 0.000459 0.000000
0.000036 0.000473 0.000000
0.000029 0.000478 0.000000
0.000032 0.000488 0.000000
0.000032 0.000497 0.000000
0.000063 0.000500 0.000000
0.001230 0.001178 0.000000
0.001247 0.001170 0.000000
0.001272 0.001167 0.000000
0.001282 0.001160 0.000000
0.001288 0.001171 0.000000
0.001292 0.001164 0.000000
0.001303 0.001161 0.000000
0.001309 0.001159 0.000000
0.001332 0.001148 0.000000
0.000040 0.000300 0.000000
0.000040 0.000310 0.000000
0.000040 0.000320 0.000000
0.000040 0.000331 0.000000
0.000040 0.000341 0.000000
0.000041 0.000349 0.000000
0.000040 0.000360 0.000000
0.000041 0.000369 0.000000
0.000040 0.000380 0.000000
0.000041 0.000390 0.000000
0.000041 0.000399 0.000000
0.000041 0.000410 0.000000
0.000041 0.000420 0.000000
0.000040 0.000430 0.000000
0.000042 0.000439 0.000000
0.000043 0.000450 0.000000
0.000042 0.000460 0.000000
0.000037 0.000469 0.000000
0.000045 0.000477 0.000000
0.000043 0.000496 0.000000
0.000040 0.000498 0.000000
0.001009 0.001011 0.000000
0.001237 0.001168 0.000000
0.001256 0.001166 0.000000
0.001260 0.001162 0.000000
0.001273 0.001168 0.000000
0.001292 0.001155 0.000000
0.001313 0.001149 0.000000
0.001311 0.001139 0.000000
0.001322 0.001151 0.000000
0.001329 0.001139 0.000000
0.000050 0.000300 0.000000
0.000050 0.000310 0.000000
0.000050 0.000320 0.000000
0.000050 0.000329 0.000000
0.000051 0.000339 0.000000
0.000050 0.000351 0.000000
0.000050 0.000360 0.000000
0.000050 0.000371 0.000000
0.000051 0.000379 0.000000
0.000050 0.000390 0.000000
0.000052 0.000400 0.000000
0.000049 0.000410 0.000000
0.000053 0.000419 0.000000
0.000051 0.000430 0.000000
0.000053 0.000440 0.000000
0.000047 0.000451 0.000000
0.000054 0.000458 0.000000
0.000052 0.000470 0.000000
0.000055 0.000483 0.000000
0.000048 0.000488 0.000000
0.000050 0.000498 0.000000
0.001229 0.001185 0.000000
0.001183 0.001173 0.000000
0.001249 0.001159 0.000000
0.001258 0.001146 0.000000
0.001277 0.001151 0.000000
0.001295 0.001147 0.000000
0.001286 0.001144 0.000000
0.001304 0.001148 0.000000
0.001319 0.001139 0.000000
0.001324 0.001129 0.000000
0.000060 0.000300 0.000000
0.000060 0.000310 0.000000
0.000060 0.000321 0.000000
0.000060 0.000332 0.000000
0.000061 0.000339 0.000000
0.000059 0.000350 0.000000
0.000061 0.000359 0.000000
0.000060 0.000369 0.000000
0.000062 0.000380 0.000000
0.000059 0.000390 0.000000
0.000063 0.000399 0.000000
0.000060 0.000410 0.000000
0.000063 0.000419 0.000000
0.000058 0.000430 0.000000
0.000065 0.000439 0.000000
0.000061 0.000449 0.000000
0.000065 0.000460 0.000000
0.000055 0.000471 0.000000
0.000064 0.000475 0.000000
0.000068 0.000485 0.000000
0.000058 0.000496 0.000000
0.001218 0.001184 0.000000
0.001227 0.001169 0.000000
0.001243 0.001150 0.000000
0.001264 0.001153 0.000000
0.001274 0.001140 0.000000
0.001275 0.001132 0.000000
0.001304 0.001130 0.000000
0.001295 0.001138 0.000000
0.001314 0.001128 0.000000
0.001321 0.001120 0.000000
0.000070 0.000300 0.000000
0.000070 0.000310 0.000000
0.000070 0.000319 0.000000
0.000070 0.000328 0.000000
0.000071 0.000340 0.000000
0.000070 0.000351 0.000000
0.000072 0.000359 0.000000
0.000067 0.000372 0.000000
0.000082 0.000376 0.000000
0.000069 0.000390 0.000000
0.000073 0.000400 0.000000
0.000068 0.000411 0.000000
0.000074 0.000421 0.000000
0.000068 0.000429 0.000000
0.000076 0.000439 0.000000
0.000066 0.000452 0.000000
0.000078 0.000458 0.000000
0.000072 0.000470 0.000000
0.000076 0.000486 0.000000
0.000068 0.000495 0.000000
0.000076 0.000496 0.000000
0.001000 0.000991 0.000000
0.001217 0.001172 0.000000
0.001238 0.001161 0.000000
0.001256 0.001130 0.000000
0.001273 0.001151 0.000000
0.001286 0.001132 0.000000
0.001296 0.001130 0.000000
0.001290 0.001120 0.000000
0.001310 0.001119 0.000000
0.001317 0.001111 0.000000
0.000080 0.000300 0.000000
0.000080 0.000310 0.000000
0.000081 0.000321 0.000000
0.000079 0.000332 0.000000
0.000082 0.000340 0.000000
0.000080 0.000350 0.000000
0.000082 0.000361 0.000000
0.000074 0.000371 0.000000
0.000075 0.000383 0.000000
0.000080 0.000391 0.000000
0.000090 0.000397 0.000000
0.000079 0.000410 0.000000
0.000086 0.000417 0.000000
0.000078 0.000430 0.000000
0.000086 0.000445 0.000000
0.000076 0.000448 0.000000
0.000084 0.000464 0.000000
0.000074 0.000470 0.000000
0.000088 0.000472 0.000000
0.000085 0.000482 0.000000
0.000084 0.000495 0.000000
0.001208 0.001183 0.000000
0.001179 0.001179 0.000000
0.001241 0.001140 0.000000
0.001252 0.001147 0.000000
0.001265 0.001138 0.000000
0.001269 0.001124 0.000000
0.001280 0.001124 0.000000
0.001299 0.001117 0.000000
0.001306 0.001111 0.000000
0.001313 0.001102 0.000000
0.000090 0.000300 0.000000
0.000090 0.000310 0.000000
0.000090 0.000319 0.000000
0.000090 0.000329 0.000000
0.000091 0.000339 0.000000
0.000089 0.000350 0.000000
0.000092 0.000362 0.000000
0.000088 0.000369 0.000000
0.000093 0.000379 0.000000
0.000088 0.000387 0.000000
0.000084 0.000404 0.000000
0.000093 0.000409 0.000000
0.000086 0.000425 0.000000
0.000096 0.000426 0.000000
0.000090 0.000435 0.000000
0.000097 0.000455 0.000000
0.000087 0.000453 0.000000
0.000098 0.000472 0.000000
0.000106 0.000480 0.000000
0.000089 0.000494 0.000000
0.000094 0.000495 0.000000
0.001018 0.001027 0.000000
0.001212 0.001166 0.000000
0.001200 0.001173 0.000000
0.001230 0.001158 0.000000
0.001246 0.001128 0.000000
0.001274 0.001114 0.000000
0.001286 0.001113 0.000000
0.001293 0.001107 0.000000
0.001302 0.001101 0.000000
0.001309 0.001093 0.000000
0.000100 0.000300 0.000000
0.000100 0.000310 0.000000
0.000100 0.000321 0.000000
0.000099 0.000331 0.000000
0.000102 0.000341 0.000000
0.000099 0.000349 0.000000
0.000102 0.000358 0.000000
0.000100 0.000370 0.000000
0.000102 0.000380 0.000000
0.000100 0.000391 0.000000
0.000101 0.000400 0.000000
0.000103 0.000407 0.000000
0.000101 0.000417 0.000000
0.000100 0.000437 0.000000
0.000108 0.000442 0.000000
0.000096 0.000445 0.000000
0.000107 0.000460 0.000000
0.000096 0.000465 0.000000
0.000094 0.000481 0.000000
0.000106 0.000491 0.000000
0.000101 0.000494 0.000000
0.001138 0.001159 0.000000
0.001147 0.001164 0.000000
0.001173 0.001176 0.000000
0.001253 0.001135 0.000000
0.001262 0.001122 0.000000
0.001263 0.001112 0.000000
0.001284 0.001104 0.000000
0.001274 0.001101 0.000000
0.001296 0.001096 0.000000
0.001304 0.001085 0.000000
0.000110 0.000300 0.000000
0.000110 0.000310 0.000000
0.000110 0.000319 0.000000
0.000110 0.000328 0.000000
0.000110 0.000339 0.000000
0.000111 0.000351 0.000000
0.000109 0.000361 0.000000
0.000112 0.000370 0.000000
0.000110 0.000379 0.000000
0.000110 0.000389 0.000000
0.000112 0.000399 0.000000
0.000111 0.000414 0.000000
0.000116 0.000423 0.000000
0.000105 0.000427 0.000000
0.000114 0.000432 0.000000
0.000107 0.000450 0.000000
0.000116 0.000462 0.000000
0.000110 0.000470 0.000000
0.000116 0.000480 0.000000
0.000111 0.000493 0.000000
0.000119 0.000492 0.000000
0.001083 0.001117 0.000000
0.001028 0.001047 0.000000
0.001205 0.001161 0.000000
0.001225 0.001148 0.000000
0.001214 0.001145 0.000000
[...]
POINT_DATA 6231
SCALARS density float 1
LOOKUP_TABLE default
4415.411049
4427.825642
4423.796666
4422.882961
4422.021436
4421.404272
4426.623655
4428.150640
4428.757544
4430.451186
4429.107532
4433.496536
4429.062142
4428.857823
4430.978083
4440.168157
4423.604899
4432.199760
4413.336755
4424.354425
4411.254501
4430.146823
4422.521460
4443.675494
4436.297353
4419.261968
4401.067456
4425.809837
4448.821921
4450.017205
4415.934202
4419.197711
4425.885386
4425.341948
4427.820416
4432.493996
4431.406408
4423.812290
4426.327868
4426.423485
4428.626766
4423.663942
4424.738545
4424.302693
4439.425337
4416.512196
4427.348013
4410.793220
4440.808940
4463.228532
4459.474753
4416.228575
4411.288891
4415.884694
4438.864645
4501.183180
4401.084008
4402.825374
4426.932518
4399.549962
4450.806061
4437.578154
4420.240321
4429.663651
4426.597614
4426.523366
4419.642068
4426.909960
4427.421807
4435.683365
4422.985950
4431.319349
4429.867336
4441.727885
4421.173144
4436.170674
4417.378687
4473.554953
4401.552763
4455.650103
4351.809450
4450.879968
4421.549620
4425.431749
4443.006789
4422.917089
4496.611205
4348.212785
4360.370384
4412.079675
4423.652648
4426.487859
4405.015069
4429.151379
4432.245971
4424.468957
4434.705861
4435.735011
4431.487209
4427.376411
4428.871328
4424.823564
4439.551107
4409.248857
4431.767289
4418.619608
4445.373148
4406.584648
4428.066595
4390.364189
4453.141846
4371.492547
4550.703898
4373.640816
4435.373793
4454.112239
4413.180352
4453.894896
4336.935550
4486.435161
4455.774731
4423.596848
4476.985841
4426.490362
4429.695351
4426.874129
4431.751436
4432.706240
4425.720928
4433.493693
4430.200169
4438.043251
4423.976691
4431.810612
4421.658487
4448.724143
4410.417127
4445.446617
4415.107929
4453.117194
4387.929029
4512.287758
4310.871978
4418.573370
4384.764981
4432.348929
4421.018419
4446.449452
4449.424721
4491.681373
4430.415448
4405.696759
4475.570261
4444.680623
4412.298794
4431.036752
4432.218310
4435.302430
4433.463104
4430.425871
4439.555848
4415.972295
4439.638685
4419.482146
4436.387795
4416.822208
4439.476072
4403.562579
4446.869762
4374.397719
4477.122435
4364.023868
4471.159137
4363.629689
4538.590148
4381.464681
4435.990028
4426.050764
4446.653620
4463.802485
4472.722772
4454.067168
4388.333728
4401.691729
4428.144170
4419.471215
4431.630797
4436.588383
4418.141260
4439.483332
4433.865604
4437.690056
4420.624132
4442.155492
4402.624666
4449.463465
4423.022023
4439.973080
4419.125481
4447.006579
4406.172650
4468.811154
4397.004857
4514.254368
4378.811682
4468.027912
4433.064549
4413.471319
4387.251228
4386.878514
4377.024158
4446.874929
4438.410643
4407.462544
4418.826944
4423.126360
4431.502409
4430.887560
4427.996699
4432.406930
4439.552146
4402.905534
4443.066413
4425.556593
4427.145903
4415.630892
4449.672888
4391.308146
4437.703175
4410.264104
4435.478042
4440.532062
4458.468284
4430.090272
4454.491349
4452.478638
4414.819619
4389.828815
4434.361984
4470.775483
4455.977799
4418.269058
4433.912584
4416.758323
4452.367974
4435.698721
4444.049380
4413.318896
4431.334539
4425.466623
4420.925025
4416.932205
4427.288160
4445.376821
4417.245706
4439.002218
4424.188180
4445.402703
4418.021320
4432.879512
4418.013281
4439.579449
4451.095028
4401.489338
4459.787664
4447.407461
4370.320268
4462.906888
4411.843002
4427.371061
4414.240387
4425.811181
4437.798847
4383.584240
4450.895147
4443.121986
4402.147351
4438.807246
4434.563514
4425.374964
4435.688961
4436.819721
4418.549010
4431.861099
4418.879347
4428.118689
4445.755281
4424.306698
4419.653197
4444.008484
4414.473157
4428.285849
4457.965461
4411.936053
4393.603182
4426.654445
4414.551431
4435.699236
4424.690171
4412.755961
4428.148157
4413.313613
4437.345107
4465.317238
4409.934436
4384.879696
4436.525484
4437.342818
4434.908963
4412.967632
4428.870578
4431.086557
4415.249046
4439.486608
4427.586621
4423.681570
4444.228773
4409.299431
4447.579364
4420.809587
4440.994444
4436.627210
4415.132228
4402.977395
4449.712225
4457.791253
4428.830606
4461.013381
4428.244655
4428.309315
4415.413868
4425.594547
4430.785800
4428.087121
4447.016749
4446.949272
4416.024786
4410.033546
4470.020357
4447.656677
4425.878503
4430.089389
4435.874641
4437.707837
4431.448650
4430.180824
4417.045130
4435.978748
4427.017802
4427.276634
4427.545446
4407.366584
4439.971896
4408.956597
4440.995445
4422.189578
4419.823819
4475.482111
4401.465534
4459.247215
4407.709200
4412.564600
4439.574575
4439.133347
4404.551451
4394.136114
4393.207920
4445.364295
4439.844280
4414.504004
4423.261738
4452.262809
4432.986365
4427.561551
4423.150971
4422.532351
4427.738742
4443.921412
4408.668145
4442.361938
4405.688023
4443.945671
4434.487648
4423.169364
4428.880584
4457.452326
4414.085198
4403.422392
4414.671297
4382.578473
4432.913801
4435.382960
4391.720940
4435.863855
4418.780339
4427.207874
4457.079400
4452.069956
4413.147453
4354.435027
4458.209223
4389.018235
4419.102005
4440.120922
4430.192352
4433.433584
4447.776881
4414.194380
4432.383737
4422.315267
4435.909982
4425.871663
4415.672623
4413.233893
4416.198304
4449.192570
4414.708456
4393.094274
4473.745426
4411.688401
4467.288358
4489.141969
4417.157940
4440.893279
4434.106396
4422.310169
4422.625134
4424.425506
4438.510492
4442.453896
4459.430080
4464.815039
4487.469466
4454.240834
4432.923640
4433.643224
4430.452648
4413.881376
4438.182493
4420.301627
4437.109805
4417.481395
4432.783002
4414.342863
4433.162588
4443.495053
4459.848666
4434.397275
4430.554336
4358.118906
4411.851807
4485.683927
4570.542577
4390.364513
4379.880118
4426.358692
4418.921357
4436.595768
4450.395596
4413.968337
4460.174996
4427.870884
4403.756752
4408.038577
4446.495609
4428.388083
4437.940695
4436.027747
4419.830533
4447.143079
4398.788624
4439.688487
4424.361671
4399.144603
4425.691871
4447.242110
4429.550877
4406.360720
4412.266229
4445.545882
4432.763188
4521.180623
4344.004765
4324.636742
4458.481660
4393.087762
4427.555192
4429.247920
4454.094472
4479.444112
4443.975040
4443.264974
4432.497042
4389.364712
4421.831883
4413.035418
4433.537061
4429.229918
4427.913551
4426.798729
4424.043546
4446.268830
4418.380600
4420.234731
4444.725976
4448.690672
4450.426802
4417.983070
4468.828797
4393.556770
4437.653221
4436.896726
4403.011569
4486.577702
4468.581986
4422.075534
4406.574120
4424.611653
4409.160326
4467.945109
4367.809307
4461.531568
4471.373273
4423.608823
4403.773174
4432.863830
4429.567067
4437.272117
4425.740010
4432.429487
4449.624720
4420.116708
4439.608405
4393.693475
4445.377606
4445.499178
4405.841120
4416.630583
4425.200470
4420.695100
4457.754128
4420.584452
4431.375330
4396.311193
4467.854110
4383.142298
4392.677770
4419.568411
4427.094420
4432.736099
4439.887424
4392.335294
4469.128779
4437.812819
4396.003240
4459.184948
4424.161250
4438.306088
4425.262541
4433.512402
4422.036293
4428.868715
4425.178524
4421.903146
4445.982511
4410.829791
4417.043383
4427.381686
4429.438270
4460.512057
4438.215557
4436.165860
4407.312459
4453.608621
4393.273798
4435.158873
4422.430435
4437.342097
4387.630486
4423.570161
4431.843444
4420.718504
4452.167289
4422.146402
4471.182215
4469.962838
4414.496859
4425.015883
4420.167885
4421.198302
4432.535368
4427.454675
4419.926603
4445.293064
4401.304424
4459.264515
4406.385262
4447.305628
4427.845348
4410.174522
4410.013605
4438.283116
4411.968884
4409.071535
4450.032712
4374.444772
4462.773734
4426.266761
4552.140000
4377.570545
4470.537663
4417.754638
4409.719491
4441.984891
4381.156985
4462.144950
4399.776288
4414.646496
4425.593113
4422.950002
4430.851887
4427.446478
4429.555110
4419.712463
4421.189587
4445.822996
4400.680397
4433.533536
4396.543992
4431.706702
4459.574140
4422.494476
4436.477787
4435.240073
4445.327068
4433.059246
4472.431111
4473.261466
4390.964535
4385.711995
4438.388047
4417.407845
4434.216632
4466.865882
4442.688678
4404.902292
4424.799423
4454.456613
4465.400171
4421.866880
4409.829274
4432.757092
4424.496600
4431.056295
4442.378382
4411.198609
4448.797799
4407.723706
4424.562705
4426.142790
4412.409348
4412.531913
4413.139881
4457.480843
4424.713305
4396.134029
4465.404974
4427.953720
4400.022262
4396.364601
4458.377560
4415.279228
4449.535312
4418.852265
4425.549928
4439.082764
4392.880616
4380.904374
4455.395226
4357.968828
4422.997145
4442.644462
4429.376677
4435.748991
4422.411512
4430.197101
4429.345498
4399.935410
4440.204891
4422.642882
4417.377381
4445.541173
4398.334146
4448.099139
4460.323422
4417.703867
4390.571464
4456.038680
4419.946221
4415.692099
4452.907137
4451.067348
4429.787810
4423.850579
4416.276235
4461.856581
4404.031061
4429.146593
4477.554506
4338.304074
4488.884338
4389.374974
4421.249666
4422.402115
4431.202785
4428.333317
4418.277483
4440.990719
4433.221053
4424.946854
4420.644826
4403.619943
4440.493012
4423.757811
4441.822021
4392.526026
4435.254097
4427.283202
4421.066360
4412.147384
4449.027116
4400.743135
4432.722003
4425.041908
4408.631738
4432.474336
4425.346301
4431.220310
4455.128527
4437.190597
4405.072268
4448.952384
4437.488191
4442.794037
4427.896360
4426.875496
4435.109217
4434.620538
4405.078790
4426.759029
4403.348166
4440.570347
4444.942177
4424.464526
4432.933703
4430.624832
4441.839399
4454.016011
4388.073764
4452.467204
4401.646504
4454.749304
4435.598102
4472.525526
4412.412502
4420.684962
4459.292791
4411.575041
4435.951485
4454.996454
4430.189614
4458.954523
4419.933234
4421.586151
4433.299909
4434.956591
4432.739816
4411.195567
4442.110715
4434.575572
4436.690410
4441.453424
4419.545523
4410.216947
4446.901443
4435.365556
4442.346628
4440.969181
4430.058958
4430.911617
4438.029184
4403.098845
4448.510984
4364.038297
4427.579060
4431.162786
4416.088990
4464.140231
4440.817790
4415.665591
4390.408773
4445.877391
4439.612106
4445.855745
4410.666656
4418.863270
4421.730333
4440.940589
4429.959849
4423.419949
4408.089046
4427.782665
4403.837099
4452.287084
4430.174087
4436.495031
4404.058422
4464.095610
4398.887913
4407.230400
4395.521605
4450.370330
4431.007183
4461.994324
4419.417174
4434.928730
4429.003329
4432.871171
4424.325282
4407.103343
4422.766866
4454.065723
4418.879713
4415.689212
4476.795725
4409.358343
4441.565227
4429.227347
4430.272712
4420.557704
4437.295442
4432.531254
4445.982181
4427.988458
4426.513081
4403.419825
4446.424800
4403.476089
4418.207740
4421.305626
4452.024073
4422.157016
4454.825351
4406.023031
4455.073161
4421.780820
4437.688395
4413.163272
4424.746960
4425.307161
4430.661360
4414.037890
4415.130106
4427.261438
4437.528972
4424.185650
4401.412488
4431.419865
4432.143793
4426.172245
4425.061588
4438.530693
4417.097411
4410.249116
4436.925499
4428.710411
4431.324489
4422.415870
4437.511305
4441.303563
4423.422471
4442.723305
4388.650026
4447.679589
4402.139458
4453.935799
4427.278857
4432.173635
4408.914049
4430.942426
4416.864005
4427.664698
4471.967362
4402.950388
4404.650242
4447.637814
4406.394012
4437.427209
4406.986906
4422.292017
4426.227268
4439.792028
4414.400835
4441.433258
4442.481853
4425.461389
4421.870100
4439.833444
4428.706483
4411.723115
4435.287342
4440.918319
4401.994188
4427.208201
4427.367341
4420.213626
4377.425559
4369.858753
4459.176126
4432.300644
4407.027707
4422.790049
4403.806957
4452.741791
4419.549068
4409.650907
4464.159212
4423.362384
4424.359401
4445.976566
4430.937748
4432.058628
4426.178465
4424.496010
4433.916139
4397.968683
4443.371300
4436.248472
4410.125684
4442.034887
4462.884804
4407.970381
4437.870652
4437.906449
4440.364874
4395.691960
4424.326213
4496.482954
4468.410775
4427.306106
4435.051801
4432.691083
4430.592519
4419.621369
4419.249980
4418.848821
4439.898180
4411.201837
4429.823101
4417.750331
4435.880497
4433.838629
4430.336626
4427.785175
4444.256378
4421.177905
4452.225354
4431.617377
4415.136711
4447.793202
4411.930822
4413.368880
4438.939682
4447.862926
4410.696579
4433.312726
4458.274438
4384.567734
4455.153908
4404.160934
4386.596063
4430.471487
4435.295782
4426.920407
4393.749488
4474.209645
4399.365661
4414.156471
4423.164349
4470.228802
4357.665380
4413.047421
4432.749788
4436.171581
4430.932995
4428.078160
4415.085732
4441.877993
4399.658550
4433.439944
4418.617803
4454.100417
4446.888550
4418.361710
4410.420340
4463.356258
4434.263112
4432.981637
4396.307004
4392.887920
4466.930658
4457.917735
4443.200371
4403.111716
4400.449124
4430.660277
4440.145934
4446.207311
4371.199212
4476.372889
4432.210405
4452.506796
4416.779356
4438.454358
4437.024030
4422.626500
4434.968690
4440.053106
4423.210789
4420.349974
4403.241514
4449.669574
4421.525798
4400.232219
4457.340853
4431.455705
4423.006716
4394.135886
4436.965869
4463.250142
4448.553192
4334.489348
4473.387545
4462.578810
4432.536144
4470.762784
4423.937186
4439.744235
4459.556878
4442.077614
4428.831044
4404.912908
4411.504587
4436.738730
4434.262768
4433.786257
4426.447560
4434.680218
4407.237688
4448.628611
4433.572709
4417.980658
4428.057327
4454.627562
4412.625902
4432.912295
4405.031742
4438.093948
4407.773311
4450.758206
4368.065264
4449.808058
4317.609787
4497.899048
4438.505549
4419.283845
4427.828865
4494.473216
4424.616165
4438.250080
4396.965967
4470.772793
4354.790347
4433.166370
4447.413899
4434.116569
4434.948268
4426.460793
4436.652586
4428.009107
4433.259282
4411.752641
4451.665424
4405.891062
4414.165334
4431.922040
4438.340710
4412.367745
4463.402506
4374.220523
4465.112847
4390.066166
4480.211975
4470.796185
4507.351316
4414.979372
4418.423475
4378.506732
4432.861699
4413.013699
4441.292948
4453.189484
4443.471502
4440.738304
4352.381666
4454.360917
4425.352187
4425.026192
4434.000744
4421.617962
4406.032575
4412.862679
4414.596425
4419.959527
4443.468133
4450.683760
4418.321556
4448.993105
4406.177571
4432.859900
4441.011075
4429.668353
4435.345613
4424.946490
4433.143585
4503.542849
4446.023645
4429.442892
4438.951334
4422.344462
4396.685981
4456.197936
4417.671753
4440.948107
4433.613151
4445.848267
4412.008576
4424.817960
4423.128843
4443.356649
4432.721069
4455.917829
4436.268225
4444.184605
4446.376021
4392.419946
4406.343589
4439.064243
4450.145720
4425.881090
4400.108161
4409.771363
4421.956052
4463.976711
4405.793420
4390.811771
4431.265078
4391.882224
4419.463195
4424.586086
4433.335158
4413.802534
4449.143961
4383.332849
4389.406663
4480.763050
4464.338148
4405.970033
4432.805772
4434.464368
4403.164923
4427.418478
4441.363959
4424.877609
4392.946028
4431.248533
4447.925516
4419.607771
4452.109437
4418.347551
4450.320094
4429.948468
4445.987121
4474.009351
4373.366037
4443.099759
4433.583493
4446.218863
4430.976128
4438.481824
4425.091389
4446.884225
4440.942892
4459.560856
4470.905332
4444.358163
4389.292126
4418.703431
4399.959686
4428.159485
4423.422259
4443.477459
4448.103017
4397.906151
4443.990966
4436.452728
4442.116476
4409.245377
4422.316286
4437.974677
4420.421109
4415.221467
4413.316318
4432.913309
4393.182754
4433.779845
4417.794221
4439.183154
4438.445066
4432.336039
4430.669106
4431.082980
4419.622301
4435.432032
4436.656914
4411.532959
4492.537075
4396.681431
4454.421423
4427.927228
4430.690065
4425.290586
4413.726126
4417.935405
4434.808281
4428.556687
4397.388880
4425.176343
4429.715827
4450.699619
4404.479966
4464.375833
4412.473747
4446.303081
4429.132324
4438.309863
4416.218239
4397.351954
4430.869720
4453.411943
4432.632084
4404.914055
4457.517025
4424.570953
4428.563321
4439.297501
4437.304500
4439.089338
4351.632742
4393.243724
4404.583046
4415.191435
4431.716056
4437.161327
4408.435480
4439.878019
4405.497060
4424.749070
4450.031693
4409.017886
4387.903978
4390.603178
4443.849166
4424.294914
4409.979716
4418.073995
4465.051850
4472.254597
4371.300357
4443.309883
4432.856255
4430.207351
4422.152387
4435.625536
4424.650951
4436.661951
4466.835821
4439.159295
4373.962869
4447.158585
4470.154645
4414.360498
4424.643055
4430.546106
4418.645193
4444.839930
4412.080219
4427.200569
4455.621853
4445.049403
4455.101267
4434.143033
4409.953687
4430.741029
4463.483239
4410.418547
4447.790338
4414.594569
4388.174744
4416.592133
4367.795261
4420.274706
4439.926923
4434.401494
4424.352597
4437.509636
4403.805331
4423.571171
4404.711004
4382.469649
4450.908267
4407.483171
4428.869575
4434.012345
4430.393072
4411.622484
4451.127596
4405.387268
4430.058675
4402.944888
4433.877670
4438.592782
4395.544945
4427.603615
4432.427486
4418.890872
4407.780944
4451.457399
4427.758194
4403.445249
4462.638194
4457.344633
4442.917487
4435.328341
4431.513585
4439.835260
4412.865163
4455.705470
4430.051512
4441.408753
4465.470775
4461.699311
4431.164275
4404.663603
4418.325430
4437.948870
4426.453492
4412.495547
4437.012017
4421.093473
4433.110070
4442.203634
4421.763797
4433.793116
4451.318135
4411.742290
4442.802664
4439.244680
4420.504340
4414.387350
4415.264631
4430.175100
4401.357403
4462.815213
4438.088052
4433.822754
4406.840468
4454.604662
4418.665514
4447.349693
4384.300151
4418.199430
4362.767853
4398.245607
4408.929469
4430.188611
4423.229512
4434.722480
4425.864544
4429.105699
4429.798551
4413.728226
4410.575317
4422.406334
4429.922105
4432.843793
4432.325936
4401.479841
4432.805189
4447.420797
4411.364887
4432.424495
4463.886730
4385.182353
4434.397883
4415.247134
4403.172077
4437.155290
4424.083630
4440.370319
4460.552091
4436.148207
4403.448435
4404.631540
4462.411809
4449.278094
4430.529217
4423.190897
4427.057486
4443.351593
4411.638068
4423.764318
4455.930911
4441.440320
4430.953384
4444.678636
4437.754250
4425.833225
4430.081476
4434.482927
4448.544929
4426.906851
4418.422802
4444.947716
4448.782610
4336.868520
4400.443842
4426.444045
4420.606313
4436.372387
4459.079812
4483.869557
4430.654788
4448.098304
4430.664350
4400.092327
4373.679088
4425.904841
4438.450399
4426.975185
4418.328365
4438.157964
4426.540613
4404.165837
4414.051833
4420.392140
4411.052249
4436.616813
4423.847794
4415.292688
4404.189331
4446.744003
4385.904135
4429.405724
4475.401072
4392.636194
4534.244282
4393.429453
4426.506576
4416.123573
4425.769762
4449.532329
4434.679106
4422.838898
4450.380632
4485.731600
4447.266875
4422.501538
4429.722741
4435.566073
4417.649832
4428.875441
4424.193754
4429.328124
4446.498328
4434.774385
4432.918773
4440.608075
4419.172009
4430.408730
4398.570933
4447.779275
4438.834512
4448.003226
4422.907631
4408.243806
4431.619729
4426.753264
4471.691027
4447.122755
4463.022004
4423.640081
4462.925374
4477.423772
4407.221784
4427.387953
4475.510375
4433.578180
4466.801946
4432.916544
4427.789891
4432.665697
4436.273206
4406.829952
4438.783152
4393.178137
4452.120608
4422.681471
4412.980167
4432.155404
4429.837652
4429.965160
4440.068888
4397.283030
4448.448419
4414.567694
4410.583044
4435.259609
4451.258435
4445.565570
4438.625035
4456.314611
4470.398299
4449.461695
4434.458238
4382.955127
4383.333167
4371.647785
4349.110052
4401.550238
4431.962364
4432.777706
4418.304511
4417.301230
4437.019556
4444.193362
4418.138689
4440.714962
4440.631730
4449.366643
4417.712273
4444.520826
4424.609871
4424.484070
4455.622791
4421.380240
4409.680271
4451.717656
4390.955885
4433.402790
4453.862769
4414.985619
4435.935407
4430.630968
4463.103083
4446.821877
4371.034610
4458.492756
4451.564331
4406.829304
4447.219240
4429.163644
4425.910678
4439.291057
4420.996191
4429.446136
4403.575300
4416.449897
4436.397196
4481.986463
4424.517101
4425.537045
4431.573956
4423.353190
4444.241682
4399.473576
4442.633180
4425.698694
4447.293943
4391.651194
4410.683545
4417.895172
4432.762455
4380.186229
4440.016229
4374.205678
4413.520045
4443.151314
4465.719822
4470.946312
4396.309185
4421.217784
4432.758865
4420.771216
4422.552181
4437.264903
4451.034540
4447.951640
4420.465874
4411.408766
4393.343060
4421.521071
4396.153289
4448.706858
4438.355996
4424.311511
4447.780417
4435.082931
4421.837664
4461.542028
4470.934862
4380.018820
4429.500861
4420.999224
4435.258292
4416.354659
4389.129507
4444.780438
4389.241526
4459.094971
4426.606986
4417.230159
4404.942384
4426.633981
4432.107430
4429.487136
4419.407605
4423.235407
4417.399551
4426.070335
4437.763517
4419.824398
4419.969971
4434.598819
4439.354006
4401.650967
4440.726769
4414.059961
4392.767647
4443.356595
4461.302413