# vtk DataFile Version 2.0
mfree iwf
ASCII

DATASET UNSTRUCTURED_GRID
POINTS 6231 float
0.000000 0.000300 0.000000
0.000000 0.000310 0.000000
0.000000 0.000320 0.000000
0.000000 0.000330 0.000000
0.000000 0.000340 0.000000
0.000001 0.000350 0.000000
0.000001 0.000361 0.000000
0.000001 0.000371 0.000000
0.000001 0.000381 0.000000
0.000001 0.000391 0.000000
0.000001 0.000401 0.000000
0.000001 0.000411 0.000000
0.000001 0.000421 0.000000
0.000001 0.000431 0.000000
0.000001 0.000441 0.000000
0.000002 0.000451 0.000000
0.000002 0.000461 0.000000
0.000002 0.000471 0.000000
0.000002 0.000481 0.000000
0.000002 0.000492 0.000000
0.000006 0.000501 0.000000
0.000026 0.000511 0.000000
0.000026 0.000524 0.000000
0.000026 0.000532 0.000000
0.000026 0.000545 0.000000
0.000026 0.000553 0.000000
0.000026 0.000563 0.000000
0.000026 0.000573 0.000000
0.000026 0.000584 0.000000
0.000026 0.000596 0.000000
0.000026 0.000618 0.000000
0.000010 0.000300 0.000000
0.000010 0.000310 0.000000
0.000010 0.000320 0.000000
0.000010 0.000330 0.000000
0.000010 0.000340 0.000000
0.000011 0.000350 0.000000
0.000011 0.000360 0.000000
0.000011 0.000370 0.000000
0.000011 0.000380 0.000000
0.000011 0.000391 0.000000
0.000011 0.000401 0.000000
0.000011 0.000411 0.000000
0.000011 0.000421 0.000000
0.000011 0.000431 0.000000
0.000011 0.000440 0.000000
0.000012 0.000451 0.000000
0.000012 0.000460 0.000000
0.000012 0.000471 0.000000
0.000013 0.000480 0.000000
0.000010 0.000492 0.000000
0.000013 0.000498 0.000000
0.000034 0.000512 0.000000
0.000034 0.000529 0.000000
0.000035 0.000538 0.000000
0.000036 0.000551 0.000000
0.000035 0.000563 0.000000
0.000035 0.000574 0.000000
0.000035 0.000586 0.000000
0.000033 0.000598 0.000000
0.000032 0.000606 0.000000
0.000030 0.000615 0.000000
0.000020 0.000300 0.000000
0.000020 0.000310 0.000000
0.000020 0.000320 0.000000
0.000020 0.000330 0.000000
0.000021 0.000340 0.000000
0.000020 0.000350 0.000000
0.000021 0.000360 0.000000
0.000021 0.000370 0.000000
0.000021 0.000380 0.000000
0.000021 0.000390 0.000000
0.000021 0.000400 0.000000
0.000021 0.000411 0.000000
0.000022 0.000420 0.000000
0.000021 0.000431 0.000000
0.000022 0.000440 0.000000
0.000021 0.000451 0.000000
0.000023 0.000460 0.000000
0.000021 0.000471 0.000000
0.000023 0.000480 0.000000
0.000023 0.000491 0.000000
0.000021 0.000498 0.000000
0.000040 0.000520 0.000000
0.000044 0.000523 0.000000
0.000045 0.000537 0.000000
0.000044 0.000547 0.000000
0.000045 0.000558 0.000000
0.000044 0.000569 0.000000
0.000043 0.000580 0.000000
0.000042 0.000594 0.000000
0.000041 0.000607 0.000000
0.000042 0.000617 0.000000
0.000030 0.000300 0.000000
0.000030 0.000310 0.000000
0.000030 0.000320 0.000000
0.000030 0.000330 0.000000
0.000030 0.000340 0.000000
0.000030 0.000350 0.000000
0.000031 0.000360 0.000000
0.000030 0.000370 0.000000
0.000031 0.000380 0.000000
0.000031 0.000390 0.000000
0.000031 0.000400 0.000000
0.000031 0.000411 0.000000
0.000032 0.000420 0.000000
0.000031 0.000431 0.000000
0.000032 0.000440 0.000000
0.000030 0.000451 0.000000
0.000033 0.000460 0.000000
0.000030 0.000471 0.000000
0.000033 0.000479 0.000000
0.000032 0.000492 0.000000
0.000033 0.000500 0.000000
0.000042 0.000507 0.000000
0.000052 0.000528 0.000000
0.000051 0.000541 0.000000
0.000054 0.000552 0.000000
0.000052 0.000564 0.000000
0.000053 0.000576 0.000000
0.000051 0.000586 0.000000
0.000050 0.000596 0.000000
0.000051 0.000605 0.000000
0.000051 0.000616 0.000000
0.000040 0.000300 0.000000
0.000040 0.000310 0.000000
0.000040 0.000320 0.000000
0.000040 0.000330 0.000000
0.000040 0.000340 0.000000
0.000040 0.000350 0.000000
0.000041 0.000360 0.000000
0.000041 0.000370 0.000000
0.000041 0.000380 0.000000
0.000041 0.000390 0.000000
0.000041 0.000400 0.000000
0.000041 0.000410 0.000000
0.000041 0.000420 0.000000
0.000041 0.000430 0.000000
0.000042 0.000440 0.000000
0.000042 0.000450 0.000000
0.000041 0.000461 0.000000
0.000042 0.000470 0.000000
0.000042 0.000481 0.000000
0.000043 0.000490 0.000000
0.000045 0.000500 0.000000
0.000051 0.000511 0.000000
0.000059 0.000527 0.000000
0.000061 0.000538 0.000000
0.000062 0.000550 0.000000
0.000061 0.000562 0.000000
0.000061 0.000573 0.000000
0.000061 0.000585 0.000000
0.000061 0.000596 0.000000
0.000060 0.000606 0.000000
0.000061 0.000616 0.000000
0.000050 0.000300 0.000000
0.000050 0.000310 0.000000
0.000050 0.000320 0.000000
0.000050 0.000330 0.000000
0.000050 0.000340 0.000000
0.000050 0.000350 0.000000
0.000051 0.000360 0.000000
0.000051 0.000370 0.000000
0.000051 0.000380 0.000000
0.000051 0.000390 0.000000
0.000051 0.000400 0.000000
0.000051 0.000410 0.000000
0.000051 0.000420 0.000000
0.000052 0.000430 0.000000
0.000051 0.000440 0.000000
0.000052 0.000450 0.000000
0.000051 0.000460 0.000000
0.000052 0.000470 0.000000
0.000052 0.000480 0.000000
0.000053 0.000489 0.000000
0.000055 0.000501 0.000000
0.000058 0.000513 0.000000
0.000064 0.000521 0.000000
0.000068 0.000539 0.000000
0.000069 0.000552 0.000000
0.000070 0.000564 0.000000
0.000070 0.000575 0.000000
0.000070 0.000585 0.000000
0.000070 0.000595 0.000000
0.000070 0.000606 0.000000
0.000070 0.000616 0.000000
0.000060 0.000300 0.000000
0.000060 0.000310 0.000000
0.000060 0.000320 0.000000
0.000060 0.000330 0.000000
0.000060 0.000340 0.000000
0.000061 0.000350 0.000000
0.000061 0.000360 0.000000
0.000061 0.000370 0.000000
0.000061 0.000380 0.000000
0.000061 0.000390 0.000000
0.000061 0.000400 0.000000
0.000061 0.000410 0.000000
0.000061 0.000420 0.000000
0.000061 0.000430 0.000000
0.000061 0.000440 0.000000
0.000062 0.000450 0.000000
0.000062 0.000460 0.000000
0.000062 0.000470 0.000000
0.000062 0.000480 0.000000
0.000062 0.000491 0.000000
0.000064 0.000500 0.000000
0.000067 0.000509 0.000000
0.000072 0.000526 0.000000
0.000076 0.000538 0.000000
0.000078 0.000550 0.000000
0.000078 0.000562 0.000000
0.000079 0.000574 0.000000
0.000080 0.000585 0.000000
0.000080 0.000596 0.000000
0.000080 0.000606 0.000000
0.000080 0.000616 0.000000
0.000070 0.000300 0.000000
0.000070 0.000310 0.000000
0.000070 0.000320 0.000000
0.000070 0.000330 0.000000
0.000070 0.000340 0.000000
0.000071 0.000350 0.000000
0.000070 0.000360 0.000000
0.000071 0.000370 0.000000
0.000071 0.000380 0.000000
0.000071 0.000390 0.000000
0.000071 0.000400 0.000000
0.000071 0.000410 0.000000
0.000071 0.000420 0.000000
0.000071 0.000430 0.000000
0.000071 0.000440 0.000000
0.000072 0.000450 0.000000
0.000072 0.000460 0.000000
0.000072 0.000470 0.000000
0.000072 0.000480 0.000000
0.000073 0.000490 0.000000
0.000074 0.000500 0.000000
0.000075 0.000513 0.000000
0.000078 0.000522 0.000000
0.000083 0.000534 0.000000
0.000085 0.000550 0.000000
0.000086 0.000562 0.000000
0.000088 0.000573 0.000000
0.000088 0.000584 0.000000
0.000089 0.000595 0.000000
0.000089 0.000606 0.000000
0.000090 0.000616 0.000000
0.000080 0.000300 0.000000
0.000080 0.000310 0.000000
0.000080 0.000320 0.000000
0.000080 0.000330 0.000000
0.000080 0.000340 0.000000
0.000080 0.000350 0.000000
0.000081 0.000360 0.000000
0.000081 0.000370 0.000000
0.000081 0.000380 0.000000
0.000081 0.000390 0.000000
0.000081 0.000400 0.000000
0.000081 0.000410 0.000000
0.000081 0.000420 0.000000
0.000081 0.000430 0.000000
0.000081 0.000440 0.000000
0.000082 0.000450 0.000000
0.000082 0.000460 0.000000
0.000082 0.000470 0.000000
0.000082 0.000480 0.000000
0.000083 0.000490 0.000000
0.000083 0.000500 0.000000
0.000085 0.000510 0.000000
0.000087 0.000521 0.000000
0.000090 0.000536 0.000000
0.000092 0.000547 0.000000
0.000095 0.000560 0.000000
0.000096 0.000572 0.000000
0.000097 0.000583 0.000000
0.000098 0.000594 0.000000
0.000099 0.000605 0.000000
0.000100 0.000615 0.000000
0.000090 0.000300 0.000000
0.000090 0.000310 0.000000
0.000090 0.000320 0.000000
0.000090 0.000330 0.000000
0.000090 0.000340 0.000000
0.000091 0.000350 0.000000
0.000091 0.000360 0.000000
0.000091 0.000370 0.000000
0.000091 0.000380 0.000000
0.000091 0.000390 0.000000
0.000091 0.000400 0.000000
0.000091 0.000410 0.000000
0.000091 0.000420 0.000000
0.000091 0.000430 0.000000
0.000091 0.000440 0.000000
0.000092 0.000450 0.000000
0.000092 0.000460 0.000000
0.000092 0.000470 0.000000
0.000092 0.000480 0.000000
0.000092 0.000491 0.000000
0.000093 0.000500 0.000000
0.000094 0.000511 0.000000
0.000095 0.000523 0.000000
0.000097 0.000533 0.000000
0.000100 0.000545 0.000000
0.000102 0.000558 0.000000
0.000104 0.000570 0.000000
0.000106 0.000582 0.000000
0.000107 0.000593 0.000000
0.000108 0.000604 0.000000
0.000109 0.000615 0.000000
0.000100 0.000300 0.000000
0.000100 0.000310 0.000000
0.000100 0.000320 0.000000
0.000100 0.000330 0.000000
0.000100 0.000340 0.000000
0.000100 0.000350 0.000000
0.000100 0.000360 0.000000
0.000101 0.000370 0.000000
0.000101 0.000380 0.000000
0.000101 0.000390 0.000000
0.000101 0.000400 0.000000
0.000101 0.000410 0.000000
0.000101 0.000420 0.000000
0.000101 0.000430 0.000000
0.000101 0.000440 0.000000
0.000102 0.000450 0.000000
0.000102 0.000460 0.000000
0.000102 0.000470 0.000000
0.000102 0.000480 0.000000
0.000102 0.000490 0.000000
0.000103 0.000500 0.000000
0.000103 0.000511 0.000000
0.000104 0.000521 0.000000
0.000106 0.000532 0.000000
0.000108 0.000545 0.000000
0.000110 0.000556 0.000000
0.000112 0.000569 0.000000
0.000114 0.000580 0.000000
0.000116 0.000592 0.000000
0.000117 0.000603 0.000000
0.000119 0.000614 0.000000
0.000110 0.000300 0.000000
0.000110 0.000310 0.000000
0.000110 0.000320 0.000000
0.000110 0.000330 0.000000
0.000110 0.000340 0.000000
0.000110 0.000350 0.000000
0.000111 0.000360 0.000000
0.000111 0.000370 0.000000
0.000111 0.000380 0.000000
0.000111 0.000390 0.000000
0.000111 0.000400 0.000000
0.000111 0.000410 0.000000
0.000111 0.000420 0.000000
0.000111 0.000430 0.000000
0.000111 0.000440 0.000000
0.000112 0.000450 0.000000
0.000112 0.000460 0.000000
0.000112 0.000470 0.000000
0.000112 0.000480 0.000000
0.000112 0.000491 0.000000
0.000112 0.000501 0.000000
0.000113 0.000511 0.000000
0.000114 0.000521 0.000000
0.000115 0.000532 0.000000
0.000116 0.000543 0.000000
0.000118 0.000554 0.000000
[...]
POINT_DATA 6231
SCALARS density float 1
LOOKUP_TABLE default
4385.504286
4421.336514
4420.659630
4421.378006
4422.104883
4422.881949
4423.829661
4423.625590
4424.071282
4425.170200
4424.230494
4425.733415
4424.363139
4427.695977
4424.439752
4428.391037
4422.135942
4429.751803
4409.508226
4444.646853
4402.101793
4676.235496
4452.992777
4643.997530
4512.424942
4539.595718
4531.730718
4538.915483
4530.137348
4617.125141
4533.199851
4394.222918
4415.965766
4418.512898
4416.876592
4420.508924
4421.368619
4421.123181
4422.724174
4423.148685
4424.257197
4422.501000
4426.623214
4422.664034
4427.365787
4419.258524
4429.939367
4415.306186
4438.319255
4402.356171
4472.249318
4361.684333
4420.202391
4413.331952
4455.128692
4455.438735
4436.750173
4433.576735
4438.622594
4391.514877
4364.276882
4459.575481
4402.218767
4417.610044
4417.397655
4416.528483
4423.092165
4420.242446
4420.248196
4426.096322
4419.576222
4426.840082
4421.648540
4430.403911
4418.180356
4436.844802
4415.428831
4449.423846
4402.080460
4472.521616
4382.985159
4548.959460
4341.077072
4480.080347
4513.914305
4485.914102
4478.318064
4475.651692
4489.164805
4459.771003
4488.998472
4491.641667
4445.434913
4406.652353
4419.887318
4417.424919
4421.559287
4419.701625
4421.107966
4424.392173
4424.552857
4420.644371
4431.196807
4419.582123
4432.143776
4421.452191
4436.984864
4419.823920
4439.758265
4424.453904
4441.518690
4434.335498
4459.900425
4402.745852
4469.127626
4456.834741
4473.814633
4466.975957
4458.015918
4456.266623
4455.390688
4429.948953
4451.204196
4442.312656
4411.449660
4422.604443
4418.467330
4421.824597
4419.856537
4426.157762
4421.913255
4423.635031
4426.878574
4427.153787
4423.164645
4433.207600
4426.556340
4431.423205
4432.590834
4430.959762
4436.740122
4435.893006
4447.704400
4420.582445
4482.930309
4448.067537
4472.064979
4466.002637
4459.769465
4463.624167
4453.630764
4455.661426
4451.325129
4455.873275
4450.067863
4414.274867
4423.444768
4419.627056
4422.705367
4424.163709
4423.204550
4422.135384
4428.818137
4425.229423
4424.054638
4432.751400
4425.592017
4429.727976
4430.439446
4434.170749
4432.170846
4437.660670
4431.359596
4454.971567
4430.912923
4454.828048
4463.537811
4471.465813
4472.423846
4465.640096
4462.750012
4455.356963
4454.209887
4452.684853
4450.648961
4447.294160
4416.802670
4424.096368
4423.162778
4423.777874
4423.158778
4423.475050
4428.972699
4424.322919
4425.293064
4430.652479
4428.839472
4426.087329
4436.197187
4431.267693
4432.566041
4435.960069
4440.560145
4440.415169
4435.490065
4440.528508
4457.854230
4447.811164
4445.980332
4463.973165
4453.932271
4453.752802
4451.577061
4454.326048
4450.616882
4452.027367
4448.074529
4419.998356
4425.184743
4423.751049
4422.905682
4426.099811
4426.871242
4425.025490
4424.581846
4431.871556
4426.935812
4426.180887
4435.185143
4429.570029
4429.822788
4438.243181
4436.326309
4434.397762
4441.761741
4438.777857
4444.534007
4453.339305
4443.146430
4469.523385
4453.412558
4459.306790
4462.654035
4454.009345
4458.448564
4451.639494
4454.171521
4448.935583
4422.180030
4425.738962
4424.644462
4426.561463
4426.980215
4424.049017
4427.096544
4431.113086
4426.313877
4426.943065
4434.739884
4429.207769
4429.658000
4437.963083
4433.962784
4433.985369
4440.751087
4437.608716
4441.325159
4440.630372
4440.274384
4456.143784
4447.217104
4450.899309
4453.166442
4451.188010
4453.331550
4452.097589
4451.136329
4452.275708
4449.842681
4423.562506
4427.128426
4426.617943
4426.184473
4425.132323
4428.485715
4430.023572
4425.192451
4428.047587
4433.765258
4428.298859
4428.237930
4437.404229
4431.330174
4431.768654
4437.936206
4436.841637
4434.068863
4434.671889
4441.406718
4446.293441
4447.556819
4441.913526
4453.805573
4449.980941
4451.169415
4457.670069
4453.245362
4456.659636
4453.757208
4450.984000
4425.590061
4427.934696
4426.204827
4427.010171
4429.292213
4428.545480
4425.660257
4429.550284
4433.554734
4426.598835
4429.376501
4436.807956
4429.828940
4430.325839
4439.408536
4434.174394
4430.998730
4438.639732
4439.793377
4439.381316
4441.214088
4441.402507
4449.321904
4445.472009
4445.887971
4451.904113
4446.630999
4454.975389
4449.467274
4453.554113
4452.061698
4426.486408
4428.177935
4428.013056
4429.129780
4427.713031
4426.766944
4431.069085
4431.580283
4426.012879
4430.425412
4435.947435
4427.657351
4430.421887
4438.756011
4429.726193
4430.651438
4439.430591
4435.039058
4431.524202
4435.934779
4439.027790
4442.913969
4442.416881
4444.070655
4447.602075
4449.912052
4450.242241
4453.232291
4455.353943
4455.746467
4453.355176
4427.795207
4429.473651
4428.890029
4427.822110
4428.816966
4431.365439
4429.886438
4426.593398
4432.042856
4434.748304
4426.806978
4431.371853
4437.918257
4428.049129
4431.315483
4438.801012
4431.040407
4429.240311
4435.370208
4436.353943
4435.762174
4441.751589
4441.560847
4447.113646
4444.527431
4446.666723
4449.953700
4449.642546
4451.697160
4454.292632
4454.711773
4429.261730
4429.636736
4428.436502
4430.101785
4430.987216
4428.455404
4428.501200
4433.160777
4432.652191
4426.332813
4432.505631
4436.794987
4427.155289
4431.413163
4438.990830
4427.913098
4429.536166
4436.883861
4433.146619
4432.148045
4437.452645
4439.301520
4441.456012
4442.687637
4446.062053
4448.405440
4449.072758
4452.375602
4454.382765
4455.550462
4456.003058
4429.714577
4430.029803
4430.445821
4430.673461
4428.658848
4430.487799
4433.368655
4430.053746
4427.829914
4434.129093
4435.617100
4426.335289
4432.890224
4438.443990
4426.813542
4430.706728
4439.797261
4429.669492
4430.541188
4434.912894
4435.817675
4435.431338
4442.709694
4442.668357
4447.025660
4446.300585
4449.879288
4450.523281
4454.010834
4454.976799
4456.923545
4430.800510
4430.934269
4430.336451
4429.732361
4431.477486
4432.465176
4429.016565
4429.968467
4435.279692
4432.460153
4427.025672
4434.436533
4437.595781
4426.002799
4433.137707
4439.283144
4427.512078
4429.275479
4438.830816
4431.603068
4434.494435
4437.189343
4441.815095
4441.254627
4447.347596
4445.800579
4453.162600
4450.995164
4457.375631
4455.159452
4457.835943
4431.565639
4430.888031
4430.635121
4431.984696
4431.678743
4429.505440
4431.955139
4434.856537
4430.262225
4428.882697
4436.435572
4435.127359
4426.846968
4434.631443
4439.250630
4425.977889
4432.950510
4440.189619
4430.701110
4430.695569
4439.081952
4434.567571
4440.376562
4440.781558
4449.017818
4445.740397
4454.078156
4450.499928
4458.659060
4454.298331
4458.468247
4432.032668
4431.523393
4431.912205
4431.412481
4430.581649
4432.926048
4433.510259
4429.357498
4431.423576
4436.900101
4432.478826
4427.625866
4436.781898
4437.271454
4426.769857
4435.053610
4440.661430
4427.460473
4433.060693
4439.676269
4435.137238
4434.116107
4443.359330
4439.942020
4448.451095
4446.747797
4455.810358
4452.028260
4460.040480
4454.232043
4458.541517
4432.984844
4431.979658
4431.394838
4431.830553
4433.050280
4432.405304
4430.306361
4433.494385
4436.006930
4430.134539
4430.248373
4438.314267
4435.320395
4427.148226
4437.288868
4439.162528
4427.560731
4435.657029
4442.651006
4431.186737
4435.900467
4440.484212
4440.730498
4440.381328
4450.075457
4447.386785
4455.793104
4452.042523
4459.086074
4454.576983
4458.009766
4433.372009
4431.894035
4432.295757
4433.205352
4431.804314
4431.711595
4434.194769
4434.004442
4429.921132
4433.094381
4438.332062
4432.089776
4429.022206
4438.873407
4437.937680
4427.291120
4438.408153
4440.831535
4429.816811
4436.724929
4443.847739
4436.260638
4441.483696
4444.143519
4448.296355
4448.094157
4455.485657
4452.759979
4458.592530
4454.280262
4457.015296
4433.790355
4432.455592
4432.934836
4432.199884
4432.442219
4434.419908
4432.629481
4431.300942
4435.034732
4436.419952
4430.460612
4431.965330
4439.895853
4434.922563
4428.716031
4439.568369
4440.298099
4428.647463
4440.045478
4443.251799
4434.308286
4439.642246
4446.297685
4442.161532
4447.855654
4449.168947
4453.248427
4452.421464
4456.506001
4454.244450
4455.765206
4434.424504
4432.794414
4432.568729
4433.213470
4433.948732
4432.430214
4432.412301
4435.733684
4434.080747
4430.659577
4434.969159
4438.885577
4432.278121
4431.090398
4440.658909
4437.793065
4429.280177
4440.851771
4442.285430
4431.199568
4441.670380
4445.116931
4439.754636
4443.828316
4448.879608
4446.992695
4451.740845
4452.342146
4454.801849
4453.803684
4454.396820
4434.885875
4432.896957
4433.222734
4433.868924
4432.593096
4433.435945
4435.350521
4432.931524
4432.044721
4436.897735
4436.405856
4430.844729
4434.176428
4440.630042
4434.960016
4431.039043
4441.428459
4440.481250
4430.961646
4442.690147
4444.663813
4435.508707
4443.379165
4446.511584
4444.314988
4447.377455
4450.662706
4450.142751
4453.005251
4452.770234
4453.040999
4435.265361
4432.986865
4433.553554
4433.510695
4433.556852
4434.903227
4432.731248
4433.422276
4436.871630
4434.135968
4431.333933
4437.204308
4438.962174
4432.295841
4433.609957
4441.618125
4437.731214
4431.844471
4442.514097
4442.507216
4433.379436
4444.022812
4446.164303
4440.247056
4445.486081
4447.463051
4447.009763
4449.556465
4451.404454
4451.732506
4451.708232
4435.471884
4433.312116
4433.855104
4433.920706
4434.040662
4433.617253
4433.896301
4436.347959
4433.111468
4433.045262
4438.315394
4436.297912
4431.306798
4436.818210
4440.862054
4434.663399
4433.845613
4442.439766
4440.292539
4433.527810
4443.906566
4444.374513
4436.688041
4444.382788
4446.309941
4443.677612
4446.944330
4448.435835
4448.633313
4450.611694
4450.311240
4435.991394
4433.657253
4433.809270
4434.086744
4434.014117
4434.429794
4435.032124
4433.587474
4434.008945
4438.001065
4434.174723
4432.337232
4438.897678
4438.766917
4432.411921
4436.456026
4441.976433
4437.209574
4434.654435
4443.223897
4442.079239
4435.590593
4444.587552
4445.303384
4440.420365
4445.259525
4446.196575
4445.742934
4447.951731
4449.145800
4448.699429
4436.302882
4433.419429
4434.006371
4434.703538
4434.175390
4434.555681
4434.171470
4434.907641
4436.460143
4433.744695
4433.762351
4439.483814
4436.144554
4432.194583
4438.795558
4440.843079
4434.380666
4436.623947
4442.698531
4439.589214
4435.980142
4444.011789
4443.392424
4438.182275
4444.534363
4445.214945
4443.142464
4446.162422
4446.490403
4447.519847
4447.372590
4436.293826
4433.736730
4434.688170
4434.359944
4433.997603
4435.052838
4434.768864
4435.348939
4434.136002
4435.171197
4438.164193
4434.530908
4433.287603
4440.258652
4438.336596
4433.028388
4438.483046
4442.047149
4436.651308
4437.204798
4443.121882
4441.304164
4437.619571
4444.413314
4444.114955
4441.140683
4444.995030
4445.351413
4445.265745
4447.186362
4445.699365
4436.772535
4434.063242
4434.189187
4434.408210
4435.037197
4434.899909
4434.376379
4435.201708
4435.423579
4436.604918
4434.163462
4435.095739
4439.681861
4436.113893
4433.181836
4440.364067
4440.278020
4434.697599
4438.538501
4442.652420
4438.856468
4438.186893
4443.498892
4442.552150
4439.568983
4444.487871
4444.432648
4443.616150
4445.971231
4446.714902
4443.618046
4436.876015
4433.695068
4434.495658
4435.339456
4434.381106
4434.504852
4435.456938
4435.547938
4435.042499
4435.088007
4435.936762
4438.179896
4434.637761
4434.776293
4440.610337
4437.972248
4433.777540
4440.131646
4441.470036
4436.637877
4438.944644
4442.908477
4440.543717
4439.523066
4443.817025
4443.520153
4441.817945
4445.066070
4445.174520
4445.343112
4443.007079
4436.803433
4434.077191
4435.107843
4434.485983
4434.327707
4435.920726
4434.919728
4434.683648
4435.698693
4436.295191
4436.125964
4434.904765
4436.138005
4439.715398
4435.847427
4434.687552
4440.911498
4439.720691
4435.125202
4440.015624
4441.997168
4438.610791
4439.592447
4443.080345
4441.692729
4440.954077
4443.942317
4444.043213
4443.696591
4445.137558
4441.439915
4437.210448
4434.258363
4434.363806
4434.811607
4435.562034
4434.783336
4434.419917
4436.356053
4435.663706
4435.114105
4435.650056
4436.970887
4437.558460
4435.043451
4435.984499
4440.688895
4437.381467
4435.109999
4440.725043
4440.858443
4436.824627
4440.198628
4442.172716
4440.273190
4440.538331
4443.289785
4442.645478
4442.501912
4444.001299
4444.308312
4440.625729
4437.133118
4433.875422
4434.850460
4435.607757
4434.314441
4434.828642
4436.206202
4435.231234
4434.541465
4436.586604
4436.544681
4435.928581
4435.392126
4437.357624
4439.057267
4435.859007
4435.871130
4441.061599
4438.867791
4436.093148
4440.535543
4441.358678
4438.481340
4440.542452
4442.157116
4441.363306
4441.309130
4443.314352
4443.242124
4442.896772
4440.318494
4437.045246
4434.236292
4435.209389
4434.530086
4434.652027
4436.306123
4434.535082
4434.846835
4436.750063
4435.952575
4434.803418
4436.505236
4437.396229
4437.109710
4435.293066
4437.342800
4440.092536
4437.067903
4436.154347
4440.958796
4439.952681
4437.421450
4440.538813
4441.552443
4439.872374
4441.098103
4442.282080
4441.959990
4441.977764
4442.633904
4439.284983
4437.274133
4434.256566
4434.506393
4435.078319
4435.640583
4434.628173
4434.674230
4436.968383
4434.936209
4434.867692
4437.047813
4436.870577
4435.432088
4436.163651
4437.962297
4438.440996
4435.743361
4437.211003
4440.528238
4438.305150
4436.847323
4440.700887
4440.440032
4438.669409
4440.609575
4441.442951
4440.659186
4441.499906
4442.035746
4442.027713
4438.962958
4437.096492
4434.033240
4434.991170
4435.490378
4434.307231
4435.113640
4436.345427
4434.742771
4434.716602
4437.513097
4435.639050
4434.954056
4436.992077
4437.775703
4436.424043
4435.904688
4438.072669
4439.502989
4436.647198
4437.284968
4440.498029
4439.274580
4437.795279
4440.574151
4440.625909
4439.770682
4440.721990
4441.362488
4441.128352
4441.091056
4438.514152
4437.066917
4434.245594
4435.008854
4434.629990
4434.901616
4436.097817
4434.375868
4435.084769
4437.080318
4435.019493
4434.752167
4437.779663
4436.563571
4435.339234
4436.610715
4438.395167
4437.556589
4436.061713
4437.895952
4440.003555
4437.643601
4437.649440
4440.210306
4439.770596
4438.575822
4440.399458
4440.549183
4440.203893
4440.670752
4440.778532
4437.876304
4437.071064
4434.072926
4434.644372
4435.183540
4435.291983
4434.612441
4434.983057
4436.727000
4434.520229
4435.039143
4437.675297
4435.589159
4434.843576
4437.682967
4437.498367
4436.153051
4436.272174
4438.573197
4438.545520
4436.696741
4437.817578
4440.041520
4438.452266
4438.241570
4440.010496
4439.950924
4439.198041
4440.349994
4440.298076
4440.133781
4437.664894
4436.843030
4434.080767
4435.006278
4435.052093
4434.386792
4435.354013
4435.844186
4434.591199
4435.041503
4437.366532
4434.798907
4435.019154
4437.950374
4436.367619
4435.114488
4437.266964
4438.130882
4437.078851
4436.268460
4438.391045
4439.026457
4437.443818
4437.902613
4439.752803
4438.829234
4438.703316
4439.672921
4439.806734
4439.465671
4439.673170
4437.182886
4436.874621
4434.148469
4434.634384
4434.711851
4435.067218
4435.466790
4434.353856
4435.451003
4436.446248
4434.654285
4435.043333
4437.874651
4435.265084
4435.109526
4437.917839
4437.178331
4435.724936
4436.843813
4438.355298
4437.913928
4436.649844
4438.185789
4439.143918
4438.104953
4438.154248
4439.453650
4439.033048
4438.967169
4439.328712
4439.330962
4436.752301
4436.708002
4433.856116
4434.652054
4435.175826
4434.682064
4434.664246
4435.277565
4435.923980
4434.345349
4435.511875
4437.026853
4434.871692
4435.063463
4438.085792
4435.878085
4435.292979
4437.568035
4437.822099
4436.492704
4436.659010
4438.242092
4438.345935
4437.122084
4438.051254
4438.922253
4438.374312
4438.271160
4439.107501
4438.893828
4438.710256
4436.578543
4436.469913
4433.956001
4434.864736
4434.560284
4434.426486
4435.500278
4435.000288
4434.579770
4435.457949
4436.422027
4434.398607
4435.513815
4437.457260
4435.216146
4435.175364
4438.051771
4436.567403
4435.692060
4437.102952
4438.065014
4437.160010
4436.831055
4438.045166
4438.459699
4437.542086
4438.097842
4438.632491
4438.401625
4438.308567
4438.393836
4436.151273
4436.470292
4433.937086
4434.343528
4434.630377
4435.062146
4434.723406
4434.393073
4435.734672
4435.404688
4434.504165
4435.583331
4436.892525
4434.567932
4435.529036
4437.679045
4435.648771
4435.346025
4437.746698
4437.106862
4436.275455
4436.788099
4437.970877
4437.505765
4437.088213
4437.787875
4438.255716
4437.695567
4438.038275
4438.218272
4438.062205
4435.905282
4436.251433
4433.697222
4434.490389
4434.923998
4434.228800
4434.599218
4435.429189
4434.907328
4434.367283
4435.906965
4435.853095
4434.492894
4435.634124
4437.234739
4434.856340
4435.574364
4437.680831
4436.173434
4435.623315
4437.325087
4437.376547
4436.826711
4436.730646
4437.782673
4437.610018
4437.341066
4437.605757
4437.995017
4437.682648
4437.640057
4435.680448
4436.067187
4433.737569
4434.509936
4434.288451
4434.344181
4435.315386
4434.329872
4434.516251
4435.758676
4435.177976
4434.322611
4436.001099
4436.285098
4434.600837
4435.647149
4437.397559
4435.216079
4435.635343
4437.448448
4436.631530
4435.957662
4436.946217
4437.329066
4437.097954
4436.754242
4437.512680
4437.458144
4437.342827
4437.377534
4437.394485
4435.348038
4435.957838
4433.632404
4434.156718
4434.459924
4434.674610
4434.327569
4434.330164
4435.678222
4434.479880
4434.436114
4436.000256
4435.519463
4434.312613
4436.008225
4436.595652
4434.816305
4435.659392
4437.387241
4435.619624
4435.789935
4437.094748
4436.895515
4436.315922
4436.758399
4437.179179
4437.141050
4436.813546
4437.291624
4437.202911
4437.059295
4435.206612
4435.734170
4433.549656
4434.242175
4434.451995
4434.008407
4434.517720
4435.039119
4434.348703
4434.298045
4435.999375
4434.700221
4434.360574
4436.114526
4435.869678
4434.402787
4435.964578
4436.737732
4435.103178
4435.661897
4437.179116
4435.963051
4435.979133
4436.722287
4436.869031
4436.483996
4436.652643
4436.915981
4436.951030
4436.770308
4436.754565
4434.975731
4435.630356
4433.498611
4434.050365
4434.126399
4434.216364
4434.750240
4434.028802
4434.494605
4435.416413
4434.418065
4434.235577
4436.210812
4435.009075
4434.329653
4436.085816
4436.141291
4434.587461
4435.890833
4436.736279
4435.435610
4435.697821
4436.868078
4436.195523
4436.175793
4436.458333
4436.722053
4436.517726
4436.569868
4436.635186
4436.543711
4434.748040
4435.432440
4433.300423
4433.970261
4434.241285
4434.110947
4434.138606
4434.293808
4435.060124
4434.058664
4434.439954
4435.749928
4434.575184
4434.185934
4436.245614
4435.321722
4434.407473
4435.967903
4436.281738
4434.824891
4435.796112
4436.574885
4435.702528
4435.742845
4436.513099
4436.213819
4436.234428
4436.228752
4436.502026
4436.351087
4436.247871
4434.626014
4435.211469
4433.330571
4433.985544
4433.922146
4433.864309
4434.388891
4434.361712
4434.109612
4434.330878
4435.375728
4434.118160
4434.363068
4435.939673
4434.798974
4434.210668
4436.148848
4435.547596
4434.581495
4435.817778
4436.277059
4435.084244
4435.740168
4436.327352
4435.869223
4435.794180
4436.254140
4436.108911
4436.170439
4436.067961
4436.040280
4434.404879
4435.153216
4433.242862
4433.642973
4433.900736
4434.066188
4434.083179
4433.890202
4434.456810
4434.652808
4434.086799
4434.322436
4435.637680
4434.235583
4434.321184
4435.962139
4435.019268
4434.306550
4435.975523
4435.652259
4434.795323
4435.652971
4436.141749
4435.272408
4435.690189
4436.024847
4435.857228
4435.758815
4436.013705
4435.885547
4435.861354
4434.250715
4434.921915
4433.025201
4433.708677
4433.977215
4433.606532
4433.935846
4434.227446
4434.262707
4433.895667
4434.478700
4434.945344
4434.095089
4434.291483
4435.776304
4434.403083
4434.342143
4435.856938
4435.192139
4434.454866
4435.780218
4435.645071
4435.009105
4435.518973
4435.942560
4435.386866
4435.656930
4435.759955
4435.763485
4435.658412
4435.603483
4434.118261
4434.731421
4433.094588
4433.662459
4433.531559
4433.642236
4434.190510
4433.729596
4433.934282
4434.330827
4434.489495
4433.885764
4434.451568
4435.192196
4434.157286
4434.273568
4435.766902
4434.574083
4434.412895
4435.670950
4435.279454
4434.607657
4435.576123
4435.534379
4435.143327
4435.379535
4435.690106
4435.370104
4435.541123
4435.523940
4435.408056
4433.965131
4434.672351
4432.959977
4433.311323
4433.648305
4433.787016
4433.602479
4433.686684
4434.338110
4433.886189
4433.923033
4434.376360
4434.720957
4433.894078
4434.404877
4435.318369
4434.260381
4434.296178
4435.643065