# vtk DataFile Version 2.0
mfree iwf
ASCII

DATASET UNSTRUCTURED_GRID
POINTS 6231 float
0.000000 0.000300 0.000000
0.000000 0.000310 0.000000
0.000000 0.000320 0.000000
0.000000 0.000330 0.000000
0.000000 0.000340 0.000000
0.000000 0.000350 0.000000
0.000000 0.000360 0.000000
0.000001 0.000370 0.000000
0.000001 0.000380 0.000000
0.000001 0.000390 0.000000
0.000001 0.000400 0.000000
0.000001 0.000410 0.000000
0.000001 0.000420 0.000000
0.000001 0.000430 0.000000
0.000001 0.000440 0.000000
0.000001 0.000450 0.000000
0.000002 0.000460 0.000000
0.000002 0.000470 0.000000
0.000002 0.000480 0.000000
0.000001 0.000492 0.000000
0.000006 0.000501 0.000000
0.000822 0.000964 0.000000
0.000893 0.001004 0.000000
0.000839 0.000972 0.000000
0.000906 0.001009 0.000000
0.000927 0.001015 0.000000
0.000976 0.001022 0.000000
0.000985 0.001020 0.000000
0.000997 0.001016 0.000000
0.001010 0.001014 0.000000
0.001040 0.001016 0.000000
0.000010 0.000300 0.000000
0.000010 0.000310 0.000000
0.000010 0.000320 0.000000
0.000010 0.000330 0.000000
0.000010 0.000340 0.000000
0.000010 0.000350 0.000000
0.000010 0.000360 0.000000
0.000011 0.000370 0.000000
0.000011 0.000380 0.000000
0.000011 0.000390 0.000000
0.000011 0.000400 0.000000
0.000011 0.000410 0.000000
0.000011 0.000420 0.000000
0.000011 0.000430 0.000000
0.000011 0.000440 0.000000
0.000011 0.000450 0.000000
0.000012 0.000460 0.000000
0.000011 0.000472 0.000000
0.000013 0.000478 0.000000
0.000009 0.000492 0.000000
0.000013 0.000498 0.000000
0.000947 0.001013 0.000000
0.000962 0.001014 0.000000
0.000970 0.001015 0.000000
0.000976 0.001013 0.000000
0.000992 0.001008 0.000000
0.001003 0.001007 0.000000
0.001018 0.001004 0.000000
0.001029 0.001005 0.000000
0.001034 0.001003 0.000000
0.001037 0.001011 0.000000
0.000020 0.000300 0.000000
0.000020 0.000310 0.000000
0.000020 0.000320 0.000000
0.000020 0.000330 0.000000
0.000021 0.000340 0.000000
0.000020 0.000350 0.000000
0.000021 0.000360 0.000000
0.000021 0.000370 0.000000
0.000020 0.000380 0.000000
0.000021 0.000390 0.000000
0.000021 0.000400 0.000000
0.000022 0.000410 0.000000
0.000021 0.000420 0.000000
0.000022 0.000431 0.000000
0.000020 0.000440 0.000000
0.000023 0.000451 0.000000
0.000021 0.000460 0.000000
0.000022 0.000470 0.000000
0.000021 0.000482 0.000000
0.000024 0.000494 0.000000
0.000020 0.000497 0.000000
0.000914 0.001000 0.000000
0.000943 0.001008 0.000000
0.000953 0.001010 0.000000
0.000958 0.001008 0.000000
0.000968 0.001001 0.000000
0.000983 0.001005 0.000000
0.001009 0.001000 0.000000
0.001024 0.001000 0.000000
0.001032 0.000992 0.000000
0.001039 0.000989 0.000000
0.000030 0.000300 0.000000
0.000030 0.000310 0.000000
0.000030 0.000320 0.000000
0.000030 0.000330 0.000000
0.000030 0.000340 0.000000
0.000030 0.000350 0.000000
0.000031 0.000360 0.000000
0.000030 0.000370 0.000000
0.000032 0.000380 0.000000
0.000030 0.000390 0.000000
0.000031 0.000400 0.000000
0.000031 0.000411 0.000000
0.000031 0.000420 0.000000
0.000031 0.000430 0.000000
0.000031 0.000440 0.000000
0.000031 0.000450 0.000000
0.000031 0.000459 0.000000
0.000036 0.000473 0.000000
0.000029 0.000478 0.000000
0.000032 0.000488 0.000000
0.000032 0.000497 0.000000
0.000063 0.000500 0.000000
0.000935 0.001003 0.000000
0.000951 0.000994 0.000000
0.000979 0.000997 0.000000
0.000988 0.000989 0.000000
0.000993 0.001001 0.000000
0.000998 0.000994 0.000000
0.001009 0.000991 0.000000
0.001016 0.000990 0.000000
0.001038 0.000981 0.000000
0.000040 0.000300 0.000000
0.000040 0.000310 0.000000
0.000040 0.000320 0.000000
0.000040 0.000331 0.000000
0.000040 0.000340 0.000000
0.000041 0.000349 0.000000
0.000040 0.000360 0.000000
0.000040 0.000370 0.000000
0.000041 0.000380 0.000000
0.000040 0.000390 0.000000
0.000042 0.000400 0.000000
0.000041 0.000410 0.000000
0.000042 0.000420 0.000000
0.000041 0.000431 0.000000
0.000042 0.000439 0.000000
0.000043 0.000450 0.000000
0.000042 0.000460 0.000000
0.000037 0.000469 0.000000
0.000045 0.000477 0.000000
0.000043 0.000496 0.000000
0.000040 0.000498 0.000000
0.000729 0.000816 0.000000
0.000943 0.000994 0.000000
0.000961 0.000994 0.000000
0.000969 0.000988 0.000000
0.000977 0.000995 0.000000
0.000998 0.000984 0.000000
0.001020 0.000980 0.000000
0.001018 0.000970 0.000000
0.001028 0.000984 0.000000
0.001036 0.000972 0.000000
0.000050 0.000300 0.000000
0.000050 0.000310 0.000000
0.000050 0.000320 0.000000
0.000050 0.000329 0.000000
0.000050 0.000340 0.000000
0.000051 0.000351 0.000000
0.000050 0.000361 0.000000
0.000052 0.000371 0.000000
0.000050 0.000380 0.000000
0.000052 0.000390 0.000000
0.000051 0.000400 0.000000
0.000050 0.000411 0.000000
0.000052 0.000420 0.000000
0.000051 0.000430 0.000000
0.000053 0.000440 0.000000
0.000048 0.000451 0.000000
0.000054 0.000458 0.000000
0.000053 0.000469 0.000000
0.000056 0.000483 0.000000
0.000048 0.000488 0.000000
0.000050 0.000498 0.000000
0.000932 0.001009 0.000000
0.000889 0.000994 0.000000
0.000956 0.000988 0.000000
0.000972 0.000976 0.000000
0.000985 0.000980 0.000000
0.001002 0.000977 0.000000
0.000993 0.000973 0.000000
0.001011 0.000979 0.000000
0.001026 0.000971 0.000000
0.001033 0.000961 0.000000
0.000060 0.000300 0.000000
0.000060 0.000310 0.000000
0.000060 0.000320 0.000000
0.000061 0.000332 0.000000
0.000061 0.000339 0.000000
0.000060 0.000349 0.000000
0.000061 0.000358 0.000000
0.000059 0.000368 0.000000
0.000061 0.000380 0.000000
0.000060 0.000391 0.000000
0.000062 0.000400 0.000000
0.000060 0.000409 0.000000
0.000063 0.000419 0.000000
0.000059 0.000431 0.000000
0.000065 0.000440 0.000000
0.000060 0.000449 0.000000
0.000065 0.000460 0.000000
0.000055 0.000472 0.000000
0.000064 0.000475 0.000000
0.000068 0.000486 0.000000
0.000058 0.000496 0.000000
0.000922 0.001008 0.000000
0.000934 0.000994 0.000000
0.000950 0.000977 0.000000
0.000963 0.000979 0.000000
0.000980 0.000968 0.000000
0.000984 0.000962 0.000000
0.001013 0.000961 0.000000
0.001003 0.000968 0.000000
0.001022 0.000960 0.000000
0.001030 0.000953 0.000000
0.000070 0.000300 0.000000
0.000070 0.000310 0.000000
0.000070 0.000319 0.000000
0.000070 0.000328 0.000000
0.000071 0.000340 0.000000
0.000070 0.000351 0.000000
0.000073 0.000359 0.000000
0.000070 0.000374 0.000000
0.000081 0.000376 0.000000
0.000070 0.000390 0.000000
0.000073 0.000400 0.000000
0.000069 0.000411 0.000000
0.000074 0.000421 0.000000
0.000068 0.000429 0.000000
0.000075 0.000438 0.000000
0.000067 0.000451 0.000000
0.000077 0.000458 0.000000
0.000073 0.000470 0.000000
0.000076 0.000486 0.000000
0.000068 0.000495 0.000000
0.000076 0.000496 0.000000
0.000722 0.000794 0.000000
0.000923 0.000994 0.000000
0.000944 0.000984 0.000000
0.000964 0.000957 0.000000
0.000981 0.000978 0.000000
0.000994 0.000962 0.000000
0.001004 0.000960 0.000000
0.000999 0.000950 0.000000
0.001019 0.000951 0.000000
0.001027 0.000943 0.000000
0.000080 0.000300 0.000000
0.000080 0.000310 0.000000
0.000081 0.000321 0.000000
0.000079 0.000331 0.000000
0.000082 0.000340 0.000000
0.000079 0.000349 0.000000
0.000083 0.000362 0.000000
0.000073 0.000369 0.000000
0.000076 0.000383 0.000000
0.000079 0.000392 0.000000
0.000089 0.000397 0.000000
0.000078 0.000410 0.000000
0.000085 0.000416 0.000000
0.000078 0.000431 0.000000
0.000086 0.000445 0.000000
0.000077 0.000448 0.000000
0.000085 0.000463 0.000000
0.000074 0.000470 0.000000
0.000087 0.000473 0.000000
0.000085 0.000482 0.000000
0.000084 0.000495 0.000000
0.000912 0.001006 0.000000
0.000884 0.001000 0.000000
0.000948 0.000965 0.000000
0.000959 0.000972 0.000000
0.000971 0.000964 0.000000
0.000979 0.000952 0.000000
0.000989 0.000952 0.000000
0.001009 0.000948 0.000000
0.001016 0.000942 0.000000
0.001024 0.000934 0.000000
0.000090 0.000300 0.000000
0.000090 0.000310 0.000000
0.000090 0.000319 0.000000
0.000090 0.000329 0.000000
0.000091 0.000340 0.000000
0.000089 0.000350 0.000000
0.000091 0.000361 0.000000
0.000089 0.000369 0.000000
0.000092 0.000379 0.000000
0.000090 0.000387 0.000000
0.000085 0.000404 0.000000
0.000093 0.000410 0.000000
0.000087 0.000425 0.000000
0.000096 0.000426 0.000000
0.000089 0.000435 0.000000
0.000097 0.000455 0.000000
0.000087 0.000453 0.000000
0.000097 0.000471 0.000000
0.000106 0.000480 0.000000
0.000089 0.000494 0.000000
0.000094 0.000495 0.000000
0.000736 0.000833 0.000000
0.000917 0.000989 0.000000
0.000905 0.000995 0.000000
0.000936 0.000984 0.000000
0.000956 0.000953 0.000000
0.000983 0.000943 0.000000
0.000997 0.000943 0.000000
0.001003 0.000937 0.000000
0.001013 0.000932 0.000000
0.001020 0.000925 0.000000
0.000100 0.000300 0.000000
0.000100 0.000310 0.000000
0.000100 0.000321 0.000000
0.000100 0.000331 0.000000
0.000101 0.000340 0.000000
0.000100 0.000349 0.000000
0.000100 0.000359 0.000000
0.000101 0.000370 0.000000
0.000100 0.000381 0.000000
0.000100 0.000391 0.000000
0.000100 0.000400 0.000000
0.000103 0.000406 0.000000
0.000101 0.000418 0.000000
0.000100 0.000436 0.000000
0.000110 0.000444 0.000000
0.000096 0.000445 0.000000
0.000107 0.000460 0.000000
0.000098 0.000467 0.000000
0.000094 0.000481 0.000000
0.000106 0.000491 0.000000
0.000101 0.000494 0.000000
0.000844 0.000976 0.000000
0.000853 0.000982 0.000000
0.000878 0.000996 0.000000
0.000959 0.000963 0.000000
0.000972 0.000950 0.000000
0.000973 0.000939 0.000000
0.000993 0.000934 0.000000
0.000985 0.000930 0.000000
0.001007 0.000926 0.000000
0.001016 0.000916 0.000000
0.000110 0.000300 0.000000
0.000110 0.000310 0.000000
0.000110 0.000319 0.000000
0.000110 0.000329 0.000000
0.000111 0.000340 0.000000
0.000109 0.000351 0.000000
0.000111 0.000360 0.000000
0.000110 0.000370 0.000000
0.000111 0.000378 0.000000
0.000111 0.000389 0.000000
0.000113 0.000400 0.000000
0.000110 0.000414 0.000000
0.000116 0.000422 0.000000
0.000107 0.000427 0.000000
0.000112 0.000433 0.000000
0.000106 0.000449 0.000000
0.000115 0.000461 0.000000
0.000111 0.000471 0.000000
0.000116 0.000480 0.000000
0.000111 0.000493 0.000000
0.000119 0.000492 0.000000
0.000793 0.000929 0.000000
0.000745 0.000854 0.000000
0.000911 0.000985 0.000000
0.000932 0.000972 0.000000
0.000922 0.000970 0.000000
[...]
POINT_DATA 6231
SCALARS density float 1
LOOKUP_TABLE default
4413.613275
4427.741157
4423.914327
4421.852850
4422.371925
4422.167477
4424.532456
4426.057904
4428.580720
4429.504271
4426.540142
4430.267801
4429.622227
4432.153579
4431.435686
4439.608607
4423.130171
4432.551580
4413.539586
4424.053195
4411.190021
4423.470760
4427.149394
4430.636175
4441.764675
4417.826431
4398.730208
4427.320493
4450.762228
4452.051611
4416.739234
4419.750083
4425.706367
4423.226407
4427.630904
4429.536506
4430.485576
4426.229649
4432.685444
4429.102993
4430.990132
4427.167771
4435.064532
4423.615338
4433.097133
4415.357509
4428.784024
4411.956124
4440.484488
4463.869415
4459.916231
4415.926487
4411.312089
4415.381185
4437.884723
4507.597673
4398.443981
4400.536864
4426.321603
4398.591720
4453.924479
4440.012238
4419.386623
4426.059742
4429.501330
4426.920089
4423.398814
4427.307057
4422.736675
4429.430860
4413.122227
4433.054723
4422.485041
4432.604449
4421.532282
4442.362820
4420.048392
4470.653591
4400.842237
4453.781680
4350.662579
4451.293104
4421.117361
4419.464542
4433.696326
4413.859502
4500.315932
4331.926581
4364.592908
4415.551485
4422.853050
4424.702821
4401.503724
4426.846283
4432.266502
4425.430578
4427.545449
4433.467335
4431.169181
4431.398384
4438.245398
4430.748095
4443.735822
4411.824442
4437.636398
4422.121221
4439.459331
4403.715874
4430.382684
4396.111628
4453.188530
4373.996581
4550.466075
4372.314105
4431.585887
4457.553757
4432.771867
4481.867382
4342.105589
4487.275424
4464.362136
4414.026638
4478.631756
4432.770054
4427.490586
4426.636643
4429.181151
4437.017542
4430.383585
4430.392720
4430.478000
4424.097680
4422.534278
4418.364603
4422.426227
4448.303158
4405.696974
4444.615873
4420.813248
4452.331862
4388.446126
4507.900283
4308.598928
4419.122533
4384.804610
4428.388063
4406.806159
4434.744566
4406.834202
4482.465712
4428.574433
4411.027517
4483.259810
4443.160390
4413.127579
4428.351868
4435.654111
4433.358337
4431.029774
4427.478993
4434.949458
4428.869834
4446.427126
4434.266568
4441.048931
4425.825530
4426.178323
4415.758627
4456.077589
4370.191453
4477.817478
4361.978744
4471.938480
4359.151744
4538.652951
4381.525120
4444.748561
4429.704546
4464.658686
4424.234726
4442.497944
4452.205009
4389.888189
4396.609108
4420.076511
4418.444927
4436.582391
4436.609487
4417.240162
4441.452629
4435.848045
4442.020260
4412.540448
4427.637834
4387.001304
4440.308696
4413.192849
4442.988265
4417.000858
4430.817570
4421.065259
4464.488368
4397.985756
4521.334535
4378.267289
4479.900362
4432.399746
4416.950895
4396.246370
4402.097587
4454.232192
4459.233797
4422.265739
4408.931155
4416.168708
4421.350220
4429.159924
4428.858991
4422.413838
4436.397339
4439.058075
4397.176271
4446.080647
4411.208009
4445.211796
4392.749699
4459.875797
4392.804316
4435.852277
4403.926475
4439.725002
4435.485875
4458.644054
4442.714521
4451.456209
4448.037987
4413.399057
4390.339040
4438.646145
4458.883702
4437.723845
4423.230266
4424.187080
4420.893725
4454.543229
4440.623022
4444.265641
4413.821894
4428.094294
4431.963393
4428.155291
4408.952482
4441.351862
4440.276799
4421.400654
4451.660618
4423.220473
4430.325226
4410.062010
4437.513436
4429.472507
4438.907398
4462.190491
4385.814305
4449.020706
4451.709672
4364.715932
4463.164132
4416.739692
4433.157784
4414.412381
4422.795088
4448.552444
4381.476295
4448.555734
4433.120321
4404.643328
4433.673763
4439.118574
4431.941155
4432.451938
4418.704177
4424.109898
4437.262113
4405.804617
4447.217404
4439.122741
4455.790907
4441.426670
4442.797396
4394.864871
4420.954067
4458.424484
4418.646649
4380.495957
4440.713121
4435.996503
4428.778202
4427.681279
4415.210973
4429.197128
4428.761483
4425.341679
4487.591946
4409.281667
4389.370362
4438.536526
4443.556913
4427.163061
4412.708085
4428.034308
4421.276071
4437.591021
4436.679360
4417.372809
4439.592555
4435.350053
4406.722639
4429.253010
4403.688104
4442.672713
4448.492045
4414.226708
4387.852754
4448.263265
4452.000123
4412.404320
4471.049173
4413.350619
4437.050709
4418.217782
4422.504624
4431.523436
4422.647374
4453.941539
4464.328912
4374.469278
4401.132359
4468.310223
4452.887902
4423.058883
4425.064012
4435.346995
4435.792904
4411.954504
4436.880530
4434.389800
4413.559205
4447.665453
4438.231750
4441.532341
4394.621440
4443.957351
4403.072419
4451.343540
4423.938414
4435.757486
4471.920645
4389.893007
4458.703150
4406.054452
4411.225141
4438.707308
4439.456470
4439.754629
4396.143022
4443.038064
4451.418542
4464.757532
4410.370265
4422.128097
4454.128525
4430.695951
4431.526221
4415.028456
4441.575758
4441.321441
4409.067963
4425.313516
4442.671019
4383.651311
4460.330753
4422.542026
4421.460665
4453.744707
4443.142020
4420.289215
4375.358115
4437.093816
4390.143751
4435.738167
4432.264798
4393.900988
4440.859874
4419.530498
4431.308249
4453.081118
4452.727216
4422.133988
4339.408020
4459.630535
4387.422014
4416.049562
4432.416025
4435.239157
4429.560228
4435.648625
4404.874068
4456.236828
4439.346600
4416.245986
4459.640881
4430.339097
4415.052778
4408.108402
4417.284754
4443.684385
4416.390628
4459.565751
4397.493947
4456.492038
4491.413786
4418.002197
4438.344730
4436.248480
4421.539074
4423.192747
4431.933621
4429.482459
4448.659044
4467.610501
4473.891706
4498.189102
4453.284559
4434.494576
4437.932556
4425.999419
4426.134337
4436.732121
4426.336411
4410.970065
4413.183173
4449.192433
4390.161113
4433.415207
4436.820960
4438.284984
4419.587014
4428.004626
4386.714591
4419.977172
4494.329509
4572.310088
4385.844794
4374.259032
4419.859894
4417.870316
4446.129093
4443.918251
4372.124349
4456.616539
4420.459007
4402.699129
4403.269175
4449.865799
4433.357060
4428.865366
4434.761354
4426.951188
4432.556833
4402.839386
4441.182740
4463.218514
4404.093597
4429.558120
4436.830249
4431.476454
4428.223394
4417.845953
4459.805242
4401.902025
4493.921345
4355.866990
4336.492434
4484.729206
4393.934996
4411.567946
4436.891476
4438.869288
4483.307218
4445.792834
4418.744506
4434.610550
4400.297259
4424.774064
4411.900461
4431.824878
4428.019656
4442.342224
4421.913984
4428.409286
4448.470166
4399.787579
4410.451808
4407.624683
4463.916100
4419.160301
4396.806692
4448.898466
4407.822494
4426.475985
4445.575444
4401.790915
4489.416962
4476.304289
4419.845153
4406.534076
4427.603777
4452.937343
4405.414586
4371.258125
4473.386123
4456.177365
4423.337100
4403.370361
4431.444389
4429.241785
4437.063342
4430.992469
4420.467174
4441.965398
4423.127042
4427.093531
4430.559341
4436.848289
4434.835597
4405.939240
4465.283064
4421.987149
4424.496005
4449.750367
4419.499529
4435.618120
4392.002545
4488.175681
4363.112249
4364.843415
4424.338106
4421.531538
4441.170926
4446.371553
4398.371472
4449.401334
4443.922296
4421.015571
4464.542494
4433.920755
4439.166091
4427.730410
4439.085481
4427.757142
4440.030493
4430.305671
4423.968475
4443.655936
4398.569203
4443.119504
4456.310577
4402.972957
4430.092727
4411.317106
4446.682611
4387.039619
4466.210432
4351.559230
4458.680415
4400.071380
4443.291898
4394.140126
4428.657182
4434.625043
4435.445881
4457.298682
4403.583150
4464.341479
4457.608140
4414.209337
4410.096031
4420.685563
4430.537236
4422.914068
4428.646399
4411.702453
4444.112522
4435.060318
4418.541731
4452.946027
4412.415473
4407.210296
4426.370513
4456.861863
4403.930730
4441.842542
4421.597380
4449.564957
4372.660974
4464.167312
4434.240332
4565.732207
4378.453872
4476.401532
4422.708151
4439.615169
4443.217770
4391.669589
4456.958082
4396.272578
4408.692701
4421.945563
4420.849060
4436.392374
4429.506918
4439.236975
4442.759001
4413.930916
4436.308195
4411.863311
4438.576252
4420.028731
4433.207469
4443.737336
4418.146166
4415.640425
4435.813308
4414.697034
4467.189450
4442.991927
4481.201119
4369.827322
4387.856143
4435.708692
4410.555250
4427.275912
4458.214169
4415.241077
4401.039090
4427.017871
4447.051695
4459.637231
4416.844118
4407.566954
4433.662498
4432.154233
4421.102999
4429.354193
4431.063508
4436.645041
4426.046201
4419.514198
4416.249805
4434.166294
4401.133488
4433.190594
4449.433517
4443.637899
4395.595468
4456.161006
4415.848440
4450.802151
4394.995986
4467.991396
4408.684579
4446.299634
4416.667676
4426.153435
4431.379180
4413.794694
4384.704306
4450.399508
4356.700768
4425.323480
4443.715272
4426.833856
4434.352768
4434.144510
4435.260809
4427.956770
4411.783603
4424.400492
4442.895150
4422.191387
4429.568808
4422.621578
4422.843539
4464.681454
4388.963182
4420.708132
4446.839236
4381.540988
4419.819203
4412.274598
4443.189620
4424.790421
4425.286127
4422.569567
4461.194938
4421.382336
4452.859410
4476.406908
4360.284133
4483.800264
4378.058881
4423.072495
4429.596360
4433.966344
4425.110054
4428.647351
4421.326056
4446.839464
4430.976479
4402.912334
4408.131181
4438.192632
4417.039807
4416.345292
4442.819683
4426.066695
4429.557516
4416.123848
4448.300019
4416.475660
4415.145389
4440.730407
4416.369298
4411.600992
4454.493651
4406.385889
4434.912699
4456.987621
4428.912853
4370.475599
4438.082659
4438.986952
4447.699808
4427.615582
4434.636646
4418.563066
4442.269596
4427.378387
4417.563401
4410.655617
4438.007507
4439.343571
4413.159836
4420.056133
4427.067055
4432.916969
4411.287472
4428.981780
4426.107280
4398.758528
4459.973566
4443.742147
4500.816541
4408.020422
4417.354956
4454.391035
4413.597903
4453.200825
4435.742609
4461.546204
4431.439729
4434.429397
4425.385085
4436.270401
4425.410375
4439.534934
4424.116901
4431.256511
4420.894039
4437.853812
4439.048475
4404.406960
4422.055059
4416.144233
4447.995488
4421.235467
4411.588153
4432.043805
4427.963769
4430.325942
4433.762216
4428.356684
4365.169341
4407.702070
4431.785959
4406.814330
4449.324613
4435.882833
4420.688900
4426.883971
4433.902873
4421.321518
4428.353348
4407.531297
4421.113104
4429.090821
4434.663004
4419.769216
4437.743770
4424.448183
4425.277774
4409.702802
4442.302121
4435.624182
4432.040674
4399.151505
4429.966870
4425.628150
4426.102559
4409.879120
4443.736306
4430.725535
4474.250768
4399.382639
4432.088512
4424.193334
4440.380637
4426.705054
4382.417979
4428.682806
4432.503394
4419.655019
4439.574316
4489.574398
4419.204716
4444.187542
4430.990842
4432.863143
4426.523277
4436.589862
4421.290452
4441.898939
4426.509366
4429.532675
4401.628999
4440.589007
4433.748802
4424.466477
4417.830862
4452.872083
4415.804623
4461.166726
4403.908655
4466.192305
4426.266457
4440.565092
4419.561401
4423.045035
4432.859399
4433.251656
4418.138815
4430.752405
4421.564525
4424.214377
4390.438062
4394.482377
4428.727597
4430.238622
4428.535077
4429.936583
4429.013770
4429.376549
4438.072867
4424.683201
4434.341327
4433.761690
4410.235302
4412.070631
4434.535929
4419.949110
4444.084249
4395.118632
4442.658721
4400.391874
4439.496880
4423.221556
4430.845742
4407.979944
4438.972497
4416.027396
4430.919740
4474.888576
4385.814828
4424.457742
4444.428828
4385.382108
4440.130398
4404.360186
4427.943197
4427.841096
4431.264290
4430.235650
4437.590658
4417.310766
4435.208751
4427.593297
4424.686707
4435.909452
4420.722981
4440.862783
4431.097768
4394.029774
4441.722585
4445.751243
4406.645333
4384.309799
4374.933702
4459.119770
4436.094355
4409.379374
4415.949536
4404.482473
4452.600378
4443.050574
4431.074567
4470.610949
4442.120415
4433.431258
4453.244316
4434.374392
4430.904322
4430.435714
4425.067390
4432.523122
4425.642062
4440.789685
4423.425497
4412.728548
4430.622208
4437.346075
4397.740194
4448.851458
4445.630777
4414.328902
4411.518697
4421.042544
4493.260938
4463.642520
4434.514024
4440.885899
4431.939416
4452.888608
4418.889978
4432.361307
4429.070159
4434.648161
4432.913285
4427.936771
4395.844641
4430.194248
4430.626911
4431.808921
4435.456549
4437.969315
4431.196038
4437.011428
4413.537889
4438.411738
4449.065403
4409.039147
4441.862170
4443.068363
4427.124188
4413.585539
4440.021223
4454.462922
4394.851321
4450.447999
4394.633383
4373.701739
4429.479829
4433.216243
4422.429358
4383.395835
4468.782376
4395.812717
4426.465733
4412.287074
4472.363955
4359.474752
4421.330112
4433.327667
4432.741502
4423.061845
4428.329127
4424.025145
4441.441428
4430.824461
4413.746654
4416.432515
4452.533053
4421.790675
4418.589350
4427.621727
4453.628130
4427.162083
4423.772704
4407.459865
4392.336865
4466.559780
4465.159798
4447.749243
4400.330366
4408.720713
4424.833689
4449.507033
4433.069465
4376.634390
4461.123355
4422.795467
4466.607491
4419.960994
4435.959203
4432.955692
4433.076039
4436.286210
4430.164341
4418.792453
4421.120915
4445.918475
4410.528649
4433.388203
4405.556304
4464.724633
4421.255386
4433.601170
4397.589773
4441.734033
4455.016491
4462.639448
4337.853145
4475.577153
4460.269929
4429.344993
4485.159806
4433.072543
4453.229028
4460.701350
4437.317099
4419.610083
4390.448998
4399.007292
4437.426075
4433.486575
4422.969274
4424.650282
4408.018428
4442.414758
4433.864851
4434.287992
4432.889969
4416.858235
4440.393037
4398.953077
4433.889959
4400.406215
4445.338837
4399.045624
4442.328110
4381.928950
4443.066236
4321.296016
4500.116947
4453.145102
4422.163785
4419.138574
4519.932303
4394.601460
4437.819073
4405.613035
4463.873219
4365.940746
4434.988142
4446.977489
4427.183979
4434.399262
4436.517284
4441.066245
4415.941485
4435.411495
4407.435270
4425.887077
4419.777831
4430.265997
4430.237400
4422.756280
4404.976989
4455.441085
4400.572441
4457.186413
4390.086557
4478.541385
4458.884352
4506.964156
4422.583204
4416.574136
4362.784812
4433.847180
4402.366319
4438.953461
4467.074911
4459.741300
4456.696738
4368.628838
4456.834705
4427.365358
4429.866169
4413.936827
4428.361122
4421.525602
4443.447272
4419.986969
4410.101708
4417.003283
4414.125799
4424.818126
4447.712323
4417.615197
4415.853667
4440.098794
4432.263243
4424.204755
4432.492443
4437.672074
4507.986016
4546.671527
4434.371918
4435.245187
4423.962329
4415.207270
4463.806813
4400.791568
4415.514413
4436.609286
4433.672933
4415.587270
4422.849769
4431.588317
4425.981500
4425.576041
4424.951043
4417.279176
4425.452287
4440.783895
4428.849141
4417.945312
4439.302744
4452.043718
4406.797068
4434.634460
4426.493960
4424.206305
4449.401493
4405.766632
4404.023215
4429.266619
4390.658072
4415.711581
4420.816643
4415.676820
4416.735755
4445.721047
4374.839570
4372.932907
4497.664620
4476.728187
4419.032481
4420.551523
4423.391643
4430.143193
4411.893777
4417.575738
4425.251654
4411.364014
4442.067808
4410.689942
4424.280501
4454.241037
4433.037584
4408.779064
4442.811799
4415.173679
4462.327182
4391.696722
4452.828709
4430.349773
4451.832093
4430.321253
4444.457062
4428.090265
4429.856422
4435.116575
4465.580021
4483.100393
4439.081858
4367.466608
4443.312381
4394.230106
4427.636322
4423.912388
4422.396564
4434.230333
4449.190723
4417.905616
4436.511298
4426.308421
4437.469507
4442.451735
4411.690114
4421.386135
4409.287057
4419.354195
4432.079488
4431.451944
4443.984215
4402.150945
4444.476272
4447.901341
4428.138531
4430.842524
4429.288345
4420.565120
4455.706932
4459.870096
4408.256193
4532.690254
4367.905081
4426.301834
4427.131516
4423.371364
4436.493294
4432.216468
4421.482290
4417.229814
4414.647095
4419.700311
4421.597662
4439.342919
4419.199556
4407.690651
4428.431100
4421.253235
4425.588814
4418.419734
4438.387482
4390.351677
4423.017480
4429.331101
4448.449060
4435.922392
4430.900123
4444.102483
4447.687142
4462.912140
4439.611755
4469.734288
4425.079748
4341.517817
4397.696778
4415.850228
4426.167922
4415.737431
4419.555501
4433.123078
4437.716603
4438.884824
4426.004250
4435.047541
4408.425359
4401.144268
4429.816814
4443.695608
4420.990737
4431.003531
4427.941357
4417.327166
4480.009336
4379.489076
4426.928339
4436.609082
4425.121509
4424.944346
4462.564521
4415.255752
4404.121940
4462.589533
4425.474454
4380.821318
4450.083921
4475.445224
4412.463569
4430.374436
4421.688549
4439.621155
4423.169232
4419.307508
4405.077621
4440.756913
4402.739924
4441.151816
4440.660963
4396.596443
4449.463910
4440.986932
4422.994824
4402.289714
4449.514066
4396.946292
4408.587761
4375.414439
4423.933998
4435.409100
4440.675035
4416.525402
4438.871858
4433.082929
4443.826853
4394.980862
4386.268497
4466.711726
4360.414434
4422.219349
4424.295753
4416.958158
4434.121201
4400.378737
4459.464142
4427.973115
4470.318659
4385.090140
4456.066344
4405.409972
4428.898014
4427.383451
4430.263433
4427.772559
4412.402404
4427.782834
4414.766415
4442.702585
4465.923959
4450.414497
4435.205420
4441.709149
4441.277787
4438.066440
4441.772256
4443.948383
4464.445054
4475.927472
4462.129267
4417.674176
4408.520912
4425.483396
4419.164901
4438.806781
4420.258541
4431.138992
4378.343414
4424.458968
4428.077039
4430.897066
4417.662004
4442.091861
4401.869793
4422.870767
4406.046474
4442.140700
4433.601569
4410.691634
4421.513998
4382.157368
4480.166630
4449.880882
4440.000470
4400.134611
4429.595635
4428.949073
4403.578694
4435.662851
4397.048740
4457.301710
4427.451664
4411.618701
4426.548529
4424.294027
4435.874657
4407.938331
4438.694995
4447.630048
4445.495601
4417.725571
4413.319086
4441.616085
4430.848402
4453.621610
4414.167019
4451.119116
4464.313050
4399.868977
4399.776225
4467.253027
4380.655526
4437.339546
4417.093068
4403.456160
4436.185812
4428.643412
4443.738810
4445.780114
4429.760762
4396.769017
4430.297230
4400.475371
4464.458750
4428.843228
4430.946819
4418.520515
4444.830067
4411.572290
4443.660780
4421.468958
4420.362280
4410.314246
4437.704591
4411.168136
4421.570224
4423.376139
4430.220091
4461.139714
4414.073325
4439.644433
4471.582787
4424.524813
4328.234863
4399.956195
4427.155240
4414.290452
4425.640465
4418.411508
4441.132429
4444.937998
4364.980091
4399.944812
4415.522817
4368.546511
4430.664258
4438.679591
4420.695072
4433.524690
4423.419097
4403.535882
4445.160925
4431.199484
4424.435859
4419.105482
4422.275848
4440.942451
4455.996055
4389.413430
4463.663642
4378.601873
4419.164838
4468.914044
4377.940413
4549.498245
4389.080395
4428.910725
4402.247009
4433.668533
4438.521769
4424.277139
4434.627061
4430.111753
4477.411241
4416.288965
4426.505255
4429.945444
4432.519623
4425.744939
4423.796584
4427.112586
4419.553427
4389.492051
4435.618675
4416.662384
4412.359787
4410.114860
4468.319025
4402.269937
4430.544729
4454.119378
4461.561111
4438.828897
4412.402356
4425.375812
4425.862830
4488.442921
4480.666319
4456.819441
4428.490189
4464.266203
4431.315147
4440.322771
4436.960984
4455.825181
4452.716885
4482.356917
4432.686479
4429.363994
4438.013669
4436.542768
4422.785232
4447.015576
4447.009115
4434.059758
4410.852220
4406.932943
4427.590237
4407.548848
4426.345931
4445.898005
4398.106279
4451.432099
4397.617353
4402.585595
4427.727381
4446.780398
4647.008989
4468.481349
4483.053061
4453.300986
4416.714394
4439.373078
4447.577227
4390.508646
4379.402874
4337.892696
4387.031246
4435.970601
4437.484078
4412.793137
4426.121556
4432.333887
4419.644384
4430.890599
4407.713367
4450.975215
4460.710362
4401.351220
4454.349990
4431.322931
4420.784195
4441.936939
4434.885326
4420.461636
4432.799907
4413.816169
4425.565384
4449.047247
4418.382307
4445.678899
4431.303181
4447.787630
4387.934526
4432.937134
4463.231971
4466.598433
4405.759381
4455.184561
4429.582132
4424.587467
4433.869646
4429.146100
4426.535056
4429.377546
4413.374486
4433.807433
4405.063402
4413.444019
4419.978843
4447.031289
4416.986974
4420.460691
4416.710924
4433.185258
4433.555403
4447.598241
4400.691405
4413.314730
4393.458385
4447.722155
4401.447374
4404.882224
4391.899703
4441.976664
4450.047330
4384.349101
4465.006714
4414.951997
4422.642982
4429.760826
4426.545910
4433.129836
4454.990858
4425.846899
4427.758472
4431.215408
4428.073718
4451.752812
4421.648002
4418.539151
4427.506199
4416.330506
4452.754890
4440.850622
4459.506355
4420.909182
4454.324433
4477.901240
4384.302968
4427.064003
4471.303766
4442.469713
4403.966658
4441.519031
4454.909821
4434.960563
4453.877403
4437.034530
4427.155301
4399.651068
4426.328108
4442.953823
4401.227853
4403.008348
4449.414710
4437.722664
4422.574610
4417.472692
4420.945916
4430.583910
4414.369144
4426.214622
4406.532662
4437.742127
4417.253723
4442.995850
4417.262272
4461.004525