# vtk DataFile Version 2.0
mfree iwf
ASCII

DATASET UNSTRUCTURED_GRID
POINTS 6231 float
0.000000 0.000300 0.000000
0.000000 0.000310 0.000000
0.000000 0.000320 0.000000
0.000000 0.000330 0.000000
0.000000 0.000340 0.000000
0.000000 0.000350 0.000000
0.000000 0.000360 0.000000
0.000001 0.000370 0.000000
0.000001 0.000380 0.000000
0.000001 0.000390 0.000000
0.000001 0.000400 0.000000
0.000001 0.000410 0.000000
0.000001 0.000420 0.000000
0.000001 0.000430 0.000000
0.000001 0.000440 0.000000
0.000001 0.000450 0.000000
0.000002 0.000460 0.000000
0.000002 0.000470 0.000000
0.000002 0.000480 0.000000
0.000002 0.000492 0.000000
0.000006 0.000501 0.000000
0.000892 0.000998 0.000000
0.000965 0.001034 0.000000
0.000909 0.001005 0.000000
0.000977 0.001038 0.000000
0.000999 0.001043 0.000000
0.001049 0.001047 0.000000
0.001057 0.001045 0.000000
0.001069 0.001040 0.000000
0.001081 0.001037 0.000000
0.001112 0.001038 0.000000
0.000010 0.000300 0.000000
0.000010 0.000310 0.000000
0.000010 0.000320 0.000000
0.000010 0.000330 0.000000
0.000010 0.000340 0.000000
0.000010 0.000350 0.000000
0.000010 0.000360 0.000000
0.000011 0.000370 0.000000
0.000011 0.000380 0.000000
0.000011 0.000390 0.000000
0.000011 0.000400 0.000000
0.000011 0.000410 0.000000
0.000011 0.000420 0.000000
0.000011 0.000430 0.000000
0.000011 0.000440 0.000000
0.000011 0.000450 0.000000
0.000012 0.000460 0.000000
0.000011 0.000472 0.000000
0.000013 0.000478 0.000000
0.000009 0.000492 0.000000
0.000013 0.000498 0.000000
0.001018 0.001040 0.000000
0.001034 0.001041 0.000000
0.001042 0.001041 0.000000
0.001048 0.001039 0.000000
0.001064 0.001033 0.000000
0.001075 0.001031 0.000000
0.001089 0.001027 0.000000
0.001100 0.001028 0.000000
0.001106 0.001026 0.000000
0.001108 0.001034 0.000000
0.000020 0.000300 0.000000
0.000020 0.000310 0.000000
0.000020 0.000320 0.000000
0.000020 0.000330 0.000000
0.000021 0.000340 0.000000
0.000020 0.000350 0.000000
0.000021 0.000360 0.000000
0.000021 0.000370 0.000000
0.000020 0.000380 0.000000
0.000021 0.000390 0.000000
0.000020 0.000400 0.000000
0.000022 0.000410 0.000000
0.000021 0.000420 0.000000
0.000022 0.000431 0.000000
0.000021 0.000440 0.000000
0.000023 0.000451 0.000000
0.000021 0.000460 0.000000
0.000022 0.000470 0.000000
0.000021 0.000482 0.000000
0.000024 0.000494 0.000000
0.000020 0.000497 0.000000
0.000985 0.001029 0.000000
0.001015 0.001035 0.000000
0.001025 0.001037 0.000000
0.001030 0.001034 0.000000
0.001039 0.001027 0.000000
0.001054 0.001031 0.000000
0.001081 0.001024 0.000000
0.001095 0.001023 0.000000
0.001102 0.001015 0.000000
0.001110 0.001012 0.000000
0.000030 0.000300 0.000000
0.000030 0.000310 0.000000
0.000030 0.000320 0.000000
0.000030 0.000330 0.000000
0.000030 0.000340 0.000000
0.000030 0.000350 0.000000
0.000031 0.000360 0.000000
0.000030 0.000371 0.000000
0.000031 0.000380 0.000000
0.000030 0.000390 0.000000
0.000031 0.000400 0.000000
0.000031 0.000411 0.000000
0.000031 0.000420 0.000000
0.000031 0.000430 0.000000
0.000031 0.000440 0.000000
0.000031 0.000450 0.000000
0.000031 0.000459 0.000000
0.000036 0.000473 0.000000
0.000029 0.000478 0.000000
0.000032 0.000488 0.000000
0.000032 0.000497 0.000000
0.000063 0.000500 0.000000
0.001006 0.001030 0.000000
0.001023 0.001021 0.000000
0.001048 0.001023 0.000000
0.001058 0.001014 0.000000
0.001065 0.001026 0.000000
0.001068 0.001018 0.000000
0.001079 0.001015 0.000000
0.001086 0.001014 0.000000
0.001109 0.001004 0.000000
0.000040 0.000300 0.000000
0.000040 0.000310 0.000000
0.000040 0.000320 0.000000
0.000040 0.000331 0.000000
0.000040 0.000340 0.000000
0.000040 0.000349 0.000000
0.000040 0.000359 0.000000
0.000040 0.000369 0.000000
0.000041 0.000380 0.000000
0.000040 0.000390 0.000000
0.000042 0.000399 0.000000
0.000041 0.000410 0.000000
0.000042 0.000420 0.000000
0.000041 0.000431 0.000000
0.000042 0.000439 0.000000
0.000043 0.000450 0.000000
0.000042 0.000460 0.000000
0.000037 0.000469 0.000000
0.000045 0.000477 0.000000
0.000043 0.000496 0.000000
0.000040 0.000498 0.000000
0.000791 0.000855 0.000000
0.001014 0.001022 0.000000
0.001032 0.001020 0.000000
0.001040 0.001014 0.000000
0.001050 0.001020 0.000000
0.001069 0.001009 0.000000
0.001090 0.001004 0.000000
0.001088 0.000994 0.000000
0.001098 0.001006 0.000000
0.001106 0.000995 0.000000
0.000050 0.000300 0.000000
0.000050 0.000310 0.000000
0.000050 0.000320 0.000000
0.000050 0.000329 0.000000
0.000051 0.000340 0.000000
0.000051 0.000350 0.000000
0.000050 0.000361 0.000000
0.000051 0.000371 0.000000
0.000051 0.000380 0.000000
0.000051 0.000390 0.000000
0.000051 0.000400 0.000000
0.000050 0.000411 0.000000
0.000052 0.000420 0.000000
0.000051 0.000430 0.000000
0.000053 0.000440 0.000000
0.000048 0.000451 0.000000
0.000054 0.000458 0.000000
0.000053 0.000469 0.000000
0.000056 0.000483 0.000000
0.000048 0.000488 0.000000
0.000050 0.000498 0.000000
0.001004 0.001037 0.000000
0.000960 0.001024 0.000000
0.001027 0.001014 0.000000
0.001042 0.001000 0.000000
0.001057 0.001004 0.000000
0.001072 0.001003 0.000000
0.001062 0.000997 0.000000
0.001081 0.001001 0.000000
0.001096 0.000994 0.000000
0.001102 0.000984 0.000000
0.000060 0.000300 0.000000
0.000060 0.000310 0.000000
0.000060 0.000320 0.000000
0.000060 0.000331 0.000000
0.000061 0.000339 0.000000
0.000059 0.000349 0.000000
0.000061 0.000358 0.000000
0.000060 0.000368 0.000000
0.000061 0.000380 0.000000
0.000060 0.000391 0.000000
0.000062 0.000400 0.000000
0.000060 0.000409 0.000000
0.000063 0.000419 0.000000
0.000059 0.000431 0.000000
0.000065 0.000440 0.000000
0.000060 0.000449 0.000000
0.000065 0.000460 0.000000
0.000055 0.000472 0.000000
0.000064 0.000475 0.000000
0.000068 0.000486 0.000000
0.000058 0.000496 0.000000
0.000993 0.001036 0.000000
0.001004 0.001021 0.000000
0.001021 0.001003 0.000000
0.001034 0.001006 0.000000
0.001050 0.000994 0.000000
0.001054 0.000986 0.000000
0.001082 0.000985 0.000000
0.001073 0.000992 0.000000
0.001091 0.000983 0.000000
0.001099 0.000975 0.000000
0.000070 0.000300 0.000000
0.000070 0.000310 0.000000
0.000070 0.000319 0.000000
0.000070 0.000328 0.000000
0.000071 0.000340 0.000000
0.000070 0.000351 0.000000
0.000072 0.000359 0.000000
0.000068 0.000373 0.000000
0.000081 0.000376 0.000000
0.000070 0.000390 0.000000
0.000073 0.000400 0.000000
0.000069 0.000411 0.000000
0.000075 0.000421 0.000000
0.000068 0.000429 0.000000
0.000075 0.000438 0.000000
0.000067 0.000451 0.000000
0.000077 0.000458 0.000000
0.000073 0.000470 0.000000
0.000076 0.000486 0.000000
0.000068 0.000495 0.000000
0.000076 0.000496 0.000000
0.000783 0.000834 0.000000
0.000993 0.001024 0.000000
0.001014 0.001011 0.000000
0.001033 0.000983 0.000000
0.001049 0.001006 0.000000
0.001064 0.000987 0.000000
0.001074 0.000984 0.000000
0.001067 0.000975 0.000000
0.001087 0.000974 0.000000
0.001095 0.000966 0.000000
0.000080 0.000300 0.000000
0.000080 0.000310 0.000000
0.000081 0.000321 0.000000
0.000079 0.000331 0.000000
0.000082 0.000340 0.000000
0.000080 0.000349 0.000000
0.000082 0.000361 0.000000
0.000074 0.000370 0.000000
0.000075 0.000383 0.000000
0.000080 0.000392 0.000000
0.000089 0.000397 0.000000
0.000079 0.000410 0.000000
0.000085 0.000416 0.000000
0.000079 0.000431 0.000000
0.000086 0.000445 0.000000
0.000077 0.000448 0.000000
0.000085 0.000463 0.000000
0.000074 0.000470 0.000000
0.000087 0.000473 0.000000
0.000085 0.000482 0.000000
0.000084 0.000495 0.000000
0.000984 0.001035 0.000000
0.000955 0.001030 0.000000
0.001017 0.000992 0.000000
0.001028 0.000999 0.000000
0.001040 0.000990 0.000000
0.001047 0.000978 0.000000
0.001057 0.000977 0.000000
0.001077 0.000972 0.000000
0.001084 0.000965 0.000000
0.001091 0.000957 0.000000
0.000090 0.000300 0.000000
0.000090 0.000310 0.000000
0.000090 0.000319 0.000000
0.000090 0.000329 0.000000
0.000091 0.000340 0.000000
0.000089 0.000350 0.000000
0.000092 0.000362 0.000000
0.000088 0.000369 0.000000
0.000093 0.000379 0.000000
0.000089 0.000387 0.000000
0.000085 0.000404 0.000000
0.000093 0.000410 0.000000
0.000087 0.000425 0.000000
0.000096 0.000426 0.000000
0.000089 0.000435 0.000000
0.000097 0.000455 0.000000
0.000087 0.000453 0.000000
0.000097 0.000471 0.000000
0.000106 0.000480 0.000000
0.000089 0.000494 0.000000
0.000094 0.000495 0.000000
0.000799 0.000872 0.000000
0.000988 0.001018 0.000000
0.000976 0.001024 0.000000
0.001006 0.001011 0.000000
0.001025 0.000980 0.000000
0.001051 0.000969 0.000000
0.001065 0.000967 0.000000
0.001071 0.000961 0.000000
0.001080 0.000956 0.000000
0.001087 0.000948 0.000000
0.000100 0.000300 0.000000
0.000100 0.000310 0.000000
0.000101 0.000321 0.000000
0.000099 0.000331 0.000000
0.000102 0.000339 0.000000
0.000099 0.000350 0.000000
0.000101 0.000359 0.000000
0.000101 0.000370 0.000000
0.000100 0.000381 0.000000
0.000100 0.000391 0.000000
0.000100 0.000400 0.000000
0.000103 0.000406 0.000000
0.000101 0.000418 0.000000
0.000100 0.000436 0.000000
0.000109 0.000443 0.000000
0.000096 0.000445 0.000000
0.000107 0.000460 0.000000
0.000098 0.000467 0.000000
0.000094 0.000481 0.000000
0.000106 0.000491 0.000000
0.000101 0.000494 0.000000
0.000914 0.001009 0.000000
0.000924 0.001014 0.000000
0.000949 0.001027 0.000000
0.001029 0.000990 0.000000
0.001040 0.000975 0.000000
0.001041 0.000965 0.000000
0.001061 0.000958 0.000000
0.001052 0.000955 0.000000
0.001075 0.000950 0.000000
0.001082 0.000939 0.000000
0.000110 0.000300 0.000000
0.000110 0.000310 0.000000
0.000110 0.000319 0.000000
0.000110 0.000329 0.000000
0.000111 0.000341 0.000000
0.000110 0.000351 0.000000
0.000111 0.000360 0.000000
0.000110 0.000370 0.000000
0.000111 0.000378 0.000000
0.000111 0.000388 0.000000
0.000113 0.000400 0.000000
0.000110 0.000414 0.000000
0.000116 0.000422 0.000000
0.000106 0.000427 0.000000
0.000112 0.000432 0.000000
0.000107 0.000449 0.000000
0.000115 0.000461 0.000000
0.000111 0.000471 0.000000
0.000116 0.000480 0.000000
0.000111 0.000493 0.000000
0.000119 0.000492 0.000000
0.000860 0.000964 0.000000
0.000808 0.000892 0.000000
0.000981 0.001013 0.000000
0.001002 0.001000 0.000000
0.000991 0.000998 0.000000
[...]
POINT_DATA 6231
SCALARS density float 1
LOOKUP_TABLE default
4413.549428
4427.798372
4423.442159
4421.637901
4421.917215
4421.278220
4424.100831
4426.165660
4429.187860
4429.940836
4426.581388
4430.453365
4429.684677
4432.313774
4431.609170
4439.084712
4423.295470
4432.692911
4413.613580
4424.181651
4411.274806
4422.772778
4424.299239
4427.787575
4438.585694
4419.836041
4395.579570
4424.362641
4448.596596
4449.880331
4418.208520
4419.176865
4425.595698
4423.582877
4428.041824
4431.045801
4431.185315
4427.575216
4431.715993
4428.012086
4430.199464
4426.661892
4434.168825
4424.241523
4432.087725
4414.259430
4430.039864
4411.892110
4439.214802
4464.412085
4459.884683
4416.144873
4407.286111
4418.158190
4439.922086
4514.633694
4409.838780
4406.097906
4424.888231
4397.706916
4450.607742
4438.801799
4419.560909
4425.903221
4429.640118
4425.395756
4421.998028
4425.362181
4421.647764
4430.294929
4414.648583
4433.405080
4424.421774
4433.216167
4421.083295
4444.065324
4420.850603
4469.017103
4401.715819
4454.497235
4350.397737
4451.571481
4421.418166
4424.895106
4438.022523
4414.592886
4506.554024
4316.436677
4358.910760
4418.905962
4425.841767
4425.566197
4401.422534
4427.402037
4431.632463
4426.025674
4428.597167
4434.822949
4434.219270
4429.776538
4438.003710
4429.611324
4442.812715
4409.877849
4438.222619
4421.213410
4437.846672
4405.272489
4428.212871
4398.662556
4452.981286
4374.675819
4550.305425
4372.685599
4431.923565
4468.363277
4441.371958
4470.925444
4345.996951
4471.151015
4458.740407
4414.994229
4475.454797
4432.338167
4428.337549
4426.852452
4428.489678
4437.501382
4427.045600
4428.762705
4431.598343
4426.371354
4419.659613
4422.325147
4421.819343
4448.124173
4408.657190
4444.213465
4421.925022
4454.501672
4388.531251
4507.246289
4309.314073
4419.477792
4385.423269
4428.281548
4391.664344
4433.693418
4427.445078
4509.103047
4442.042457
4404.541891
4498.778921
4445.488353
4416.497436
4428.490199
4435.714526
4433.140290
4431.667673
4430.322279
4438.726257
4424.873729
4443.086193
4433.756699
4439.460356
4426.328750
4425.385586
4413.004816
4455.487064
4368.475285
4477.782180
4362.351802
4470.963631
4359.866563
4538.275778
4382.337947
4440.143594
4432.089501
4468.846276
4441.580247
4439.039432
4447.550934
4393.167319
4399.300915
4410.504327
4420.997467
4435.091644
4436.516330
4417.724702
4439.667163
4434.851069
4437.624880
4420.672572
4427.963878
4394.034520
4436.558763
4416.751543
4444.753970
4417.025975
4435.025460
4420.309467
4465.058150
4395.978462
4523.328379
4378.858178
4480.608498
4432.795662
4413.415639
4396.951255
4409.420573
4437.974777
4454.576464
4421.041684
4418.245940
4404.540133
4410.685768
4435.584926
4428.482090
4423.127987
4436.253128
4437.529462
4405.510596
4438.841289
4419.371571
4429.101560
4398.366147
4463.396992
4390.952284
4433.413799
4407.821399
4435.240275
4432.192173
4459.162765
4441.439924
4453.321732
4447.079574
4414.836509
4392.021036
4436.890710
4460.561609
4426.281700
4422.854767
4387.330838
4434.862985
4450.887185
4435.468979
4437.920844
4414.907040
4428.622309
4432.918199
4428.654264
4406.991328
4432.787058
4442.842735
4417.277242
4457.080171
4424.329459
4426.864572
4417.192561
4438.381941
4429.290385
4442.488472
4460.720080
4387.792797
4447.927319
4452.623138
4365.109379
4462.801750
4418.756648
4430.597179
4414.384353
4436.981917
4432.463588
4392.780027
4443.142326
4437.068770
4408.655785
4434.141709
4439.333712
4436.118252
4433.207418
4416.504855
4429.870043
4431.195870
4418.078376
4440.755721
4434.784651
4452.196040
4439.808424
4442.395325
4393.596724
4419.084742
4458.718364
4416.462749
4380.871181
4442.555367
4440.257530
4430.353404
4429.396952
4415.808703
4429.074938
4419.216786
4432.391499
4494.899113
4400.801746
4391.253458
4433.531669
4447.957889
4426.647031
4413.232748
4428.809874
4425.355632
4432.518901
4444.020383
4415.477783
4432.327486
4438.739303
4412.646718
4430.162208
4404.755526
4439.649815
4445.281557
4418.144320
4390.449494
4448.753047
4452.394812
4413.068783
4468.401509
4413.574258
4438.113138
4418.999661
4421.405383
4431.749416
4423.426657
4449.293217
4466.853597
4376.987907
4403.160746
4466.483429
4450.936129
4423.746366
4423.123620
4435.090835
4443.252049
4404.044120
4444.777362
4428.401057
4414.777679
4442.859081
4428.823205
4447.828206
4398.568442
4441.344913
4409.873389
4452.738614
4410.567512
4433.274180
4473.894057
4387.783652
4457.591634
4408.445157
4414.032628
4438.563059
4437.056268
4417.709923
4387.710312
4416.558259
4448.163884
4462.492863
4412.406008
4422.889595
4454.362542
4430.996551
4429.607586
4416.966860
4441.263359
4445.626618
4402.265701
4434.474084
4435.142879
4400.265537
4457.463123
4407.151560
4421.450128
4445.154787
4453.301320
4426.272759
4375.455434
4438.125500
4384.912624
4437.463587
4433.572697
4395.108317
4437.992070
4410.737170
4426.759373
4454.800246
4450.104411
4419.450997
4341.619692
4459.783696
4386.854377
4416.871762
4436.600408
4437.552275
4428.826750
4434.433341
4410.472793
4457.253739
4442.036605
4400.580541
4457.739412
4419.574806
4427.131406
4390.878180
4419.648648
4452.681219
4391.359244
4451.885136
4396.976058
4463.581329
4488.980865
4419.780702
4438.954378
4435.287105
4422.696430
4419.655398
4406.241117
4438.121079
4452.263363
4466.632675
4470.611346
4498.284773
4454.711518
4433.794775
4432.939304
4427.010112
4423.638669
4440.445879
4425.314003
4415.951183
4421.270915
4451.392107
4386.365614
4453.448655
4429.029454
4445.460597
4421.525488
4453.267600
4376.288283
4425.781347
4493.077788
4578.680969
4386.523814
4373.678284
4422.174302
4421.210744
4441.372069
4456.570889
4388.858568
4447.161009
4425.285905
4403.469748
4404.116112
4449.709225
4431.889267
4431.443354
4443.498842
4423.126641
4430.433022
4392.969121
4447.940725
4453.778868
4398.713260
4431.394937
4419.759796
4440.263924
4438.705903
4404.532358
4451.734281
4408.536978
4504.008601
4348.459200
4336.833658
4470.294798
4394.453636
4413.230213
4442.790560
4427.494184
4487.144105
4444.941917
4442.241061
4428.634797
4399.943798
4423.023261
4412.371192
4437.605129
4425.385725
4431.533900
4420.219677
4437.804600
4452.252095
4399.657550
4410.927700
4407.872668
4472.581980
4425.515529
4407.013314
4419.066942
4424.291245
4438.085731
4442.141475
4408.578215
4481.341375
4469.284033
4423.196790
4409.630745
4428.819124
4454.007208
4401.095878
4384.557042
4465.702784
4458.446012
4422.370424
4403.707077
4431.195021
4429.778756
4438.042123
4422.665406
4438.201319
4446.266069
4410.321113
4427.408914
4427.391078
4444.227782
4434.935353
4396.183098
4449.210116
4404.367952
4452.347317
4440.910398
4409.115117
4430.590342
4396.938886
4487.156459
4373.200275
4383.188219
4422.185639
4420.426059
4438.857900
4423.818232
4409.903236
4470.250229
4444.723725
4401.872018
4465.433596
4430.854506
4440.238830
4424.119785
4438.160816
4425.502534
4422.421278
4443.402512
4423.524296
4436.319182
4394.773027
4443.261161
4459.861599
4420.934199
4434.553584
4409.377647
4435.221370
4407.934228
4451.408768
4365.094160
4445.133046
4412.651570
4440.939941
4393.947034
4431.395167
4435.505842
4446.136341
4444.892598
4405.985217
4481.506487
4475.541876
4411.901316
4412.931473
4419.710108
4426.974621
4428.886658
4425.656690
4415.732899
4452.786099
4403.548712
4442.549355
4452.061138
4411.415260
4386.802386
4427.265816
4432.920428
4401.169052
4445.930195
4407.558743
4449.596682
4376.936039
4472.498590
4416.571371
4548.522567
4382.796159
4470.600555
4422.151315
4440.512681
4442.943054
4377.990079
4458.011945
4389.354672
4410.238895
4416.314501
4420.488987
4435.938566
4425.368289
4436.366753
4442.021811
4407.096009
4454.761258
4413.194051
4410.081315
4438.671807
4433.366216
4452.034103
4426.694013
4425.553502
4431.715239
4425.438604
4459.182350
4459.264165
4475.026225
4407.631843
4381.108047
4433.168850
4413.094050
4428.528110
4457.848202
4426.332144
4411.423018
4429.680132
4450.184303
4457.634354
4421.099439
4409.580059
4432.344798
4428.947129
4422.755435
4430.266469
4425.879999
4444.691604
4405.866538
4438.977757
4419.733261
4404.261177
4408.308559
4414.831973
4446.976912
4443.941039
4391.503566
4447.787585
4423.412583
4402.776388
4395.505017
4465.824970
4416.828477
4446.659824
4418.398316
4426.338471
4425.547488
4399.117931
4371.561846
4450.304021
4354.601580
4425.032235
4444.217316
4422.787956
4439.813543
4432.097147
4431.258152
4433.326525
4404.041273
4438.005583
4434.963151
4399.344109
4465.351388
4402.982435
4451.988959
4463.962589
4386.145086
4390.695090
4449.491779
4433.498971
4390.486017
4445.800947
4449.776588
4425.840411
4424.305929
4418.217606
4467.374212
4428.400037
4447.690206
4480.466030
4344.500250
4487.311149
4384.905916
4421.680010
4429.898752
4431.122678
4420.422381
4429.407136
4427.698292
4440.921947
4429.237167
4407.054179
4415.940210
4436.449361
4394.527713
4429.699974
4420.381455
4429.692394
4437.328035
4429.531913
4424.607246
4459.956630
4407.170800
4428.226417
4421.605130
4411.962100
4451.682206
4390.038656
4447.548934
4465.743503
4422.501506
4380.975587
4442.770043
4442.823553
4443.907636
4428.975207
4430.128121
4428.676698
4442.801916
4414.708992
4427.015613
4399.798676
4456.492971
4433.073054
4396.178789
4438.938449
4422.863749
4445.011381
4430.757410
4383.368374
4460.524351
4394.167772
4454.620971
4444.187771
4477.887006
4418.265767
4419.401468
4449.201138
4422.451381
4464.321287
4451.234225
4437.521027
4460.933210
4424.058256
4421.484511
4436.010665
4429.150700
4440.034097
4415.432952
4435.711443
4417.514156
4439.038208
4439.188898
4397.462260
4435.626227
4429.711781
4470.176511
4462.164291
4434.296228
4425.661858
4457.644397
4452.035306
4398.919383
4450.996245
4351.312703
4427.984749
4429.614623
4411.167364
4447.158765
4426.412518
4423.366500
4397.412959
4438.481380
4420.042974
4443.210416
4408.958187
4420.840302
4424.202980
4438.945533
4415.404192
4437.204836
4434.042048
4412.617090
4426.690393
4441.737371
4423.285808
4451.237866
4380.169545
4472.747896
4383.319925
4382.175012
4385.506395
4466.521212
4422.525797
4466.558070
4417.218870
4430.816615
4425.079792
4440.949106
4427.015192
4380.519170
4422.106982
4433.176871
4425.500353
4405.836584
4479.716802
4409.933273
4444.844941
4424.725837
4432.544663
4431.748097
4425.121628
4424.820166
4457.634663
4403.604322
4440.929992
4395.765070
4449.633566
4428.730495
4390.638042
4451.244341
4440.533029
4423.024389
4470.315587
4401.417752
4472.224994
4416.309329
4442.904534
4414.604536
4424.094616
4432.634567
4431.766548
4412.537399
4437.943250
4410.466810
4455.629166
4398.033330
4396.745814
4432.169170
4434.232622
4424.411797
4427.150833
4445.603676
4415.098710
4440.661532
4414.777256
4440.137980
4422.549650
4409.619717
4428.866931
4450.895694
4422.415192
4427.251951
4381.211251
4447.327052
4386.794839
4455.738635
4424.963488
4429.117935
4404.463268
4436.670217
4416.255524
4430.976482
4478.546557
4394.368992
4415.825813
4432.801216
4411.944921
4433.679545
4404.634770
4427.455009
4431.713945
4424.890180
4431.820010
4427.324706
4417.342454
4438.702791
4415.585541
4439.086896
4446.163591
4402.058738
4443.515545
4422.407159
4403.176761
4440.336029
4439.444405
4415.905331
4368.113491
4385.980166
4469.607998
4430.903545
4410.371747
4410.898680
4412.606557
4450.034264
4447.244536
4413.949419
4464.885337
4412.566594
4419.623854
4450.129196
4431.612321
4436.221048
4427.194575
4417.616408
4450.554696
4416.610618
4439.323509
4438.513426
4398.305576
4434.199181
4447.054575
4397.250309
4443.777706
4455.575871
4411.268556
4399.484208
4417.929331
4491.908744
4461.682350
4436.145191
4440.630789
4440.476282
4448.583167
4418.750191
4427.450608
4421.954860
4440.912486
4433.741049
4446.478007
4412.215033
4434.195374
4430.550806
4421.575178
4437.476650
4444.511588
4416.950909
4435.966675
4410.037672
4438.737917
4446.348509
4410.181013
4440.929312
4439.881321
4430.136860
4408.290525
4453.819512
4458.422216
4389.053116
4449.805495
4389.653326
4384.553377
4426.617403
4436.507539
4420.234248
4379.158977
4462.522381
4398.162575
4429.965051
4411.416471
4466.493311
4352.312544
4417.898580
4437.547190
4435.552720
4425.164497
4428.075326
4422.338323
4459.575695
4430.640418
4407.724894
4429.604810
4445.386342
4416.368614
4419.619141
4425.388791
4459.191255
4422.990564
4425.443147
4404.629868
4394.943789
4464.666737
4460.945347
4445.626672
4401.486637
4414.111665
4415.534675
4445.459716
4444.433343
4379.298496
4458.246802
4417.676767
4471.536518
4416.134914
4430.777779
4430.487778
4426.176042
4428.782750
4442.111160
4394.238119
4435.497265
4453.989410
4398.197571
4436.187528
4419.724544
4456.031047
4421.464211
4432.161504
4408.910513
4437.833011
4460.640669
4457.790076
4330.870802
4473.683313
4459.392317
4432.267030
4481.675875
4430.765000
4455.459994
4463.155230
4421.243548
4403.174032
4402.283508
4395.757025
4438.073633
4427.513219
4429.279400
4436.110037
4406.497194
4444.714064
4445.700517
4435.317386
4414.068831
4430.486668
4433.937303
4395.072947
4445.703416
4397.084191
4451.706447
4389.829292
4453.905470
4377.281822
4450.340781
4323.896325
4494.697452
4437.382843
4422.516423
4418.221822
4498.047166
4414.025680
4437.544484
4423.906502
4469.292015
4375.848000
4432.259372
4450.311184
4438.367786
4425.987574
4428.415260
4437.514254
4405.101269
4424.405661
4412.794942
4436.339179
4429.313068
4417.516077
4441.497939
4424.371088
4396.714404
4471.189468
4396.418869
4460.098458
4385.657142
4473.379132
4455.625875
4506.045414
4422.888925
4417.348341
4366.592799
4435.615004
4396.312305
4439.201662
4466.979110
4450.869662
4455.230338
4360.000593
4455.201745
4428.213444
4422.090304
4427.020270
4440.777252
4416.903128
4439.957983
4429.024029
4405.522754
4413.628762
4425.461148
4420.973953
4441.244956
4431.347868
4399.468421
4457.553587
4414.027183
4429.528651
4435.942861
4435.373046
4503.328940
4444.504603
4433.620586
4441.407342
4418.004561
4401.730983
4446.703266
4408.720441
4428.062268
4444.243971
4437.522082
4412.752268
4417.554429
4442.861138
4436.965689
4397.049251
4431.830886
4408.814716
4422.501037
4441.164483
4432.071711
4415.096075
4441.732871
4452.094568
4405.346440
4402.743512
4410.456779
4422.515607
4443.741217
4409.074116
4406.491990
4429.126741
4391.788379
4415.972282
4423.654471
4429.622496
4386.870035
4438.984790
4367.548379
4395.472091
4490.038955
4476.276400
4416.864369
4423.574098
4429.048314
4406.585182
4453.432531
4446.775719
4429.454906
4416.285527
4441.872954
4410.739279
4423.368574
4473.183063
4426.697333
4427.865186
4445.007484
4432.980311
4467.987604
4390.923167
4450.290065
4425.409492
4450.493173
4429.026386
4429.723607
4425.086993
4436.424384
4443.963076
4477.852257
4482.922130
4439.530814
4368.462738
4437.643115
4394.554762
4428.731537
4431.638198
4432.566506
4429.077948
4385.362204
4446.998982
4428.113381
4420.380096
4446.272989
4445.473636
4414.914048
4425.240120
4403.457997
4429.450784
4429.030769
4431.345436
4439.019081
4400.656698
4443.874711
4448.842288
4426.429663
4444.772744
4421.559003
4408.157242
4443.105465
4456.355128
4418.957050
4516.857097
4368.935019
4428.304139
4429.525156
4432.217809
4427.737330
4429.676921
4417.280196
4440.599054
4444.185557
4397.889263
4429.594844
4437.148503
4423.488794
4409.879524
4444.018332
4413.018678
4425.094097
4414.381285
4435.254794
4398.411752
4426.583455
4434.163560
4447.010074
4440.855090
4410.769834
4477.545103
4439.711372
4464.224379
4429.856613
4458.090405
4432.955633
4343.264143
4396.839464
4410.432930
4425.122314
4417.820580
4426.286809
4437.576699
4420.658225
4385.483609
4443.211489
4449.961822
4403.507933
4402.363937
4437.570414
4425.207164
4427.017159
4417.329875
4439.612807
4419.522070
4475.647774
4376.924843
4426.429285
4436.714636
4425.595165
4424.179938
4439.606272
4390.216051
4422.422132
4469.381524
4431.348822
4384.266299
4449.001887
4479.410364
4411.562606
4421.033491
4439.099974
4425.893711
4418.265918
4432.837384
4428.088391
4456.680445
4430.453396
4447.668020
4438.123273
4400.712066
4441.690183
4450.262191
4426.581442
4400.769088
4451.248535
4394.109088
4408.521547
4376.877283
4425.970841
4434.727756
4433.756138
4422.032567
4436.570189
4422.632268
4419.676502
4390.887840
4388.467145
4479.532109
4382.894200
4423.363076
4425.032961
4425.664385
4420.387495
4421.944161
4436.806842
4405.875906
4421.113592
4385.851474
4444.720408
4403.004113
4414.208818
4433.086100
4430.293864
4436.059443
4410.549019
4434.719079
4414.468524
4445.547733
4465.672134
4447.949089
4437.542075
4431.509575
4447.518356
4445.002135
4478.856080
4439.290312
4452.845712
4461.872662
4459.402423
4418.380643
4405.697554
4426.432713
4421.521755
4439.763961
4436.572747
4412.011449
4426.736501
4439.028976
4415.230467
4413.284250
4419.137996
4458.360675
4409.009822
4417.685759
4412.070826
4435.823606
4425.197041
4410.875962
4413.602444
4378.105260
4475.664434
4451.296809
4438.183547
4393.864685
4421.347605
4390.674004
4442.393505
4423.104965
4393.164067
4433.025296
4407.712382
4413.068459
4426.462151
4427.855617
4422.947550
4411.725737
4437.117430
4447.604204
4414.869955
4421.027678
4423.735217
4446.839801
4421.489449
4441.171124
4406.733417
4445.569610
4467.456235
4399.507383
4395.796184
4471.769712
4388.150325
4439.976675
4416.454804
4402.567812
4439.631376
4418.057188
4447.904038
4439.036553
4446.005315
4387.201509
4412.192842
4429.925724
4456.804583
4426.593902
4438.028354
4422.704730
4452.826557
4418.794482
4456.613225
4459.725123
4408.094297
4417.502396
4440.658034
4439.863253
4438.432772
4425.418919
4442.567405
4452.136340
4417.059869
4437.004048
4474.507367
4422.697841
4327.215130
4402.469882
4422.123015
4420.095461
4421.012562
4422.413778
4459.063758
4422.221320
4387.926072
4416.287842
4399.774910
4369.117769
4429.712843
4434.443167
4410.960498
4428.946885
4412.987875
4411.070680
4435.775377
4431.151049
4413.799337
4398.257578
4423.898248
4431.966316
4443.544684
4402.862691
4466.336445
4383.529070
4408.870134
4461.460586
4379.269211
4544.211304
4388.255933
4428.988847
4426.983769
4427.700078
4435.871435
4445.271360
4437.968757
4441.292309
4479.500689
4425.593903
4428.192848
4430.936722
4438.967376
4429.572517
4434.353287
4419.962204
4426.211996
4394.555070
4434.242339
4440.059794
4412.081676
4418.620425
4458.213724
4408.145564
4450.299377
4443.851622
4458.515113
4435.451537
4409.180378
4424.456186
4426.250945
4492.199750
4468.093216
4465.377204
4434.577662
4464.899375
4449.882623
4460.615398
4451.968217
4454.029776
4436.230978
4476.309766
4432.370631
4426.734581
4427.300905
4431.701322
4417.681168
4444.907201
4433.578681
4425.147477
4418.299046
4439.159150
4427.177113
4432.799213
4432.669107
4454.939366
4392.367330
4442.768734
4402.584738
4409.002647
4431.179395
4447.559811
4604.608165
4459.216516
4450.468545
4468.033566
4445.813794
4435.343410
4431.031317
4379.551676
4357.299347
4333.288629
4390.384117
4432.619981
4435.627238
4426.143864
4431.882151
4429.211183
4429.170269
4447.347898
4421.519808
4405.991600
4458.244028
4428.999913
4447.746897
4446.281762
4433.008331
4437.874403
4423.962152
4409.406352
4439.192447
4406.708131
4428.806112
4451.028030
4417.153671
4441.784275
4426.938368
4456.932772
4416.127718
4343.360945
4434.794289
4480.179488
4418.029580
4456.389633
4432.816254
4425.557456
4425.486108
4419.529171
4434.385595
4410.326645
4416.005103
4415.855559
4411.732864
4401.718344
4408.791812
4437.800335
4395.738381
4411.559071
4435.761416
4443.743282
4448.705610
4438.566601
4398.543174
4414.326946
4425.553529
4443.069380
4365.366908
4474.911693
4398.604755
4427.897890
4443.253485
4441.162715
4475.191065
4398.420116
4418.275860
4430.391497
4421.021589
4431.730793
4444.545374
4431.783034
4424.406647
4429.345724
4433.907684
4438.774302
4431.017596
4433.723990
4412.821778
4435.395989
4441.143674
4434.748258
4449.213128
4422.929513
4458.289241
4476.780204
4381.141546
4431.641034
4427.541939
4438.267835
4402.689240
4436.823656
4438.592426
4444.446629
4450.347410
4436.154222
4421.320308
4391.536160
4424.267303
4443.094702
4412.980300
4410.301558
4438.360269
4424.540210
4433.213626
4427.408027
4440.742461
4448.691694
4418.032148
4430.982526
4419.115065
4427.893822
4426.392751
4435.319181
4440.568134
4460.279543