# vtk DataFile Version 2.0
mfree iwf
ASCII

DATASET UNSTRUCTURED_GRID
POINTS 6231 float
0.000000 0.000300 0.000000
0.000000 0.000310 0.000000
0.000000 0.000320 0.000000
0.000000 0.000330 0.000000
0.000000 0.000340 0.000000
0.000000 0.000350 0.000000
0.000001 0.000360 0.000000
0.000001 0.000370 0.000000
0.000001 0.000380 0.000000
0.000001 0.000390 0.000000
0.000001 0.000400 0.000000
0.000001 0.000410 0.000000
0.000001 0.000420 0.000000
0.000001 0.000430 0.000000
0.000001 0.000440 0.000000
0.000002 0.000450 0.000000
0.000002 0.000460 0.000000
0.000002 0.000471 0.000000
0.000002 0.000480 0.000000
0.000002 0.000492 0.000000
0.000006 0.000501 0.000000
0.000489 0.000789 0.000000
0.000539 0.000852 0.000000
0.000500 0.000803 0.000000
0.000550 0.000862 0.000000
0.000568 0.000876 0.000000
0.000611 0.000899 0.000000
0.000619 0.000900 0.000000
0.000632 0.000901 0.000000
0.000645 0.000903 0.000000
0.000677 0.000914 0.000000
0.000010 0.000300 0.000000
0.000010 0.000310 0.000000
0.000010 0.000320 0.000000
0.000010 0.000330 0.000000
0.000010 0.000340 0.000000
0.000010 0.000350 0.000000
0.000010 0.000360 0.000000
0.000011 0.000370 0.000000
0.000011 0.000380 0.000000
0.000011 0.000390 0.000000
0.000011 0.000400 0.000000
0.000011 0.000410 0.000000
0.000011 0.000420 0.000000
0.000011 0.000430 0.000000
0.000011 0.000440 0.000000
0.000012 0.000451 0.000000
0.000012 0.000460 0.000000
0.000012 0.000472 0.000000
0.000013 0.000478 0.000000
0.000009 0.000492 0.000000
0.000013 0.000498 0.000000
0.000586 0.000881 0.000000
0.000599 0.000887 0.000000
0.000606 0.000890 0.000000
0.000614 0.000891 0.000000
0.000631 0.000892 0.000000
0.000641 0.000895 0.000000
0.000656 0.000897 0.000000
0.000666 0.000902 0.000000
0.000672 0.000903 0.000000
0.000674 0.000910 0.000000
0.000020 0.000300 0.000000
0.000020 0.000310 0.000000
0.000020 0.000320 0.000000
0.000020 0.000330 0.000000
0.000020 0.000340 0.000000
0.000020 0.000351 0.000000
0.000020 0.000360 0.000000
0.000021 0.000370 0.000000
0.000020 0.000380 0.000000
0.000021 0.000390 0.000000
0.000020 0.000400 0.000000
0.000022 0.000410 0.000000
0.000020 0.000420 0.000000
0.000022 0.000431 0.000000
0.000020 0.000440 0.000000
0.000023 0.000451 0.000000
0.000021 0.000460 0.000000
0.000022 0.000470 0.000000
0.000021 0.000481 0.000000
0.000024 0.000494 0.000000
0.000020 0.000497 0.000000
0.000561 0.000858 0.000000
0.000584 0.000874 0.000000
0.000593 0.000880 0.000000
0.000599 0.000880 0.000000
0.000611 0.000878 0.000000
0.000623 0.000886 0.000000
0.000650 0.000891 0.000000
0.000663 0.000896 0.000000
0.000674 0.000891 0.000000
0.000682 0.000892 0.000000
0.000030 0.000300 0.000000
0.000030 0.000310 0.000000
0.000030 0.000320 0.000000
0.000030 0.000330 0.000000
0.000030 0.000340 0.000000
0.000031 0.000350 0.000000
0.000030 0.000360 0.000000
0.000030 0.000370 0.000000
0.000031 0.000380 0.000000
0.000031 0.000390 0.000000
0.000031 0.000400 0.000000
0.000031 0.000411 0.000000
0.000031 0.000420 0.000000
0.000032 0.000430 0.000000
0.000031 0.000440 0.000000
0.000030 0.000450 0.000000
0.000031 0.000459 0.000000
0.000036 0.000473 0.000000
0.000030 0.000478 0.000000
0.000033 0.000488 0.000000
0.000032 0.000497 0.000000
0.000063 0.000500 0.000000
0.000580 0.000868 0.000000
0.000598 0.000866 0.000000
0.000623 0.000878 0.000000
0.000633 0.000874 0.000000
0.000635 0.000885 0.000000
0.000643 0.000880 0.000000
0.000653 0.000882 0.000000
0.000662 0.000884 0.000000
0.000684 0.000884 0.000000
0.000040 0.000300 0.000000
0.000040 0.000310 0.000000
0.000040 0.000320 0.000000
0.000040 0.000330 0.000000
0.000040 0.000340 0.000000
0.000040 0.000351 0.000000
0.000040 0.000360 0.000000
0.000041 0.000370 0.000000
0.000041 0.000380 0.000000
0.000040 0.000390 0.000000
0.000042 0.000399 0.000000
0.000041 0.000410 0.000000
0.000042 0.000420 0.000000
0.000040 0.000431 0.000000
0.000042 0.000439 0.000000
0.000043 0.000450 0.000000
0.000043 0.000460 0.000000
0.000037 0.000469 0.000000
0.000045 0.000478 0.000000
0.000043 0.000496 0.000000
0.000040 0.000498 0.000000
0.000460 0.000620 0.000000
0.000591 0.000862 0.000000
0.000607 0.000868 0.000000
0.000616 0.000866 0.000000
0.000620 0.000873 0.000000
0.000643 0.000869 0.000000
0.000665 0.000876 0.000000
0.000669 0.000867 0.000000
0.000674 0.000882 0.000000
0.000685 0.000875 0.000000
0.000050 0.000300 0.000000
0.000050 0.000310 0.000000
0.000050 0.000319 0.000000
0.000050 0.000331 0.000000
0.000050 0.000340 0.000000
0.000051 0.000350 0.000000
0.000051 0.000360 0.000000
0.000049 0.000370 0.000000
0.000051 0.000379 0.000000
0.000050 0.000390 0.000000
0.000053 0.000400 0.000000
0.000048 0.000411 0.000000
0.000053 0.000420 0.000000
0.000051 0.000430 0.000000
0.000054 0.000440 0.000000
0.000047 0.000451 0.000000
0.000055 0.000458 0.000000
0.000053 0.000470 0.000000
0.000056 0.000483 0.000000
0.000049 0.000488 0.000000
0.000050 0.000498 0.000000
0.000573 0.000871 0.000000
0.000538 0.000842 0.000000
0.000604 0.000859 0.000000
0.000623 0.000858 0.000000
0.000635 0.000864 0.000000
0.000651 0.000871 0.000000
0.000646 0.000860 0.000000
0.000659 0.000869 0.000000
0.000676 0.000870 0.000000
0.000686 0.000864 0.000000
0.000060 0.000300 0.000000
0.000060 0.000310 0.000000
0.000060 0.000321 0.000000
0.000060 0.000330 0.000000
0.000062 0.000340 0.000000
0.000059 0.000350 0.000000
0.000062 0.000360 0.000000
0.000060 0.000370 0.000000
0.000063 0.000381 0.000000
0.000058 0.000390 0.000000
0.000063 0.000400 0.000000
0.000060 0.000409 0.000000
0.000064 0.000419 0.000000
0.000057 0.000430 0.000000
0.000066 0.000440 0.000000
0.000060 0.000449 0.000000
0.000066 0.000460 0.000000
0.000055 0.000472 0.000000
0.000064 0.000475 0.000000
0.000068 0.000486 0.000000
0.000058 0.000496 0.000000
0.000565 0.000867 0.000000
0.000582 0.000858 0.000000
0.000602 0.000848 0.000000
0.000613 0.000854 0.000000
0.000630 0.000850 0.000000
0.000640 0.000849 0.000000
0.000668 0.000855 0.000000
0.000658 0.000858 0.000000
0.000676 0.000858 0.000000
0.000687 0.000855 0.000000
0.000070 0.000300 0.000000
0.000070 0.000310 0.000000
0.000070 0.000319 0.000000
0.000070 0.000330 0.000000
0.000071 0.000339 0.000000
0.000068 0.000351 0.000000
0.000074 0.000356 0.000000
0.000066 0.000371 0.000000
0.000074 0.000376 0.000000
0.000069 0.000390 0.000000
0.000073 0.000400 0.000000
0.000068 0.000411 0.000000
0.000075 0.000421 0.000000
0.000068 0.000430 0.000000
0.000075 0.000439 0.000000
0.000066 0.000452 0.000000
0.000077 0.000459 0.000000
0.000073 0.000470 0.000000
0.000076 0.000486 0.000000
0.000068 0.000496 0.000000
0.000076 0.000496 0.000000
0.000459 0.000605 0.000000
0.000571 0.000855 0.000000
0.000594 0.000853 0.000000
0.000620 0.000841 0.000000
0.000632 0.000858 0.000000
0.000649 0.000847 0.000000
0.000657 0.000854 0.000000
0.000659 0.000842 0.000000
0.000676 0.000848 0.000000
0.000687 0.000845 0.000000
0.000080 0.000300 0.000000
0.000080 0.000310 0.000000
0.000080 0.000321 0.000000
0.000081 0.000330 0.000000
0.000080 0.000341 0.000000
0.000081 0.000349 0.000000
0.000077 0.000364 0.000000
0.000083 0.000369 0.000000
0.000081 0.000384 0.000000
0.000078 0.000391 0.000000
0.000087 0.000396 0.000000
0.000079 0.000408 0.000000
0.000084 0.000417 0.000000
0.000079 0.000430 0.000000
0.000087 0.000445 0.000000
0.000077 0.000447 0.000000
0.000086 0.000463 0.000000
0.000074 0.000470 0.000000
0.000087 0.000473 0.000000
0.000085 0.000482 0.000000
0.000084 0.000495 0.000000
0.000556 0.000861 0.000000
0.000532 0.000845 0.000000
0.000606 0.000839 0.000000
0.000615 0.000847 0.000000
0.000630 0.000839 0.000000
0.000640 0.000838 0.000000
0.000648 0.000836 0.000000
0.000668 0.000841 0.000000
0.000677 0.000838 0.000000
0.000687 0.000834 0.000000
0.000090 0.000300 0.000000
0.000090 0.000310 0.000000
0.000090 0.000320 0.000000
0.000090 0.000329 0.000000
0.000090 0.000339 0.000000
0.000092 0.000351 0.000000
0.000089 0.000359 0.000000
0.000092 0.000368 0.000000
0.000089 0.000378 0.000000
0.000092 0.000388 0.000000
0.000086 0.000407 0.000000
0.000094 0.000408 0.000000
0.000089 0.000425 0.000000
0.000096 0.000426 0.000000
0.000088 0.000436 0.000000
0.000097 0.000455 0.000000
0.000087 0.000453 0.000000
0.000097 0.000471 0.000000
0.000106 0.000480 0.000000
0.000089 0.000495 0.000000
0.000094 0.000495 0.000000
0.000460 0.000634 0.000000
0.000567 0.000848 0.000000
0.000554 0.000849 0.000000
0.000586 0.000849 0.000000
0.000622 0.000831 0.000000
0.000643 0.000829 0.000000
0.000658 0.000833 0.000000
0.000666 0.000829 0.000000
0.000677 0.000828 0.000000
0.000687 0.000825 0.000000
0.000100 0.000300 0.000000
0.000100 0.000310 0.000000
0.000100 0.000320 0.000000
0.000101 0.000332 0.000000
0.000101 0.000340 0.000000
0.000099 0.000349 0.000000
0.000102 0.000361 0.000000
0.000099 0.000372 0.000000
0.000102 0.000381 0.000000
0.000100 0.000392 0.000000
0.000100 0.000399 0.000000
0.000103 0.000409 0.000000
0.000100 0.000418 0.000000
0.000100 0.000435 0.000000
0.000110 0.000444 0.000000
0.000097 0.000445 0.000000
0.000107 0.000460 0.000000
0.000098 0.000467 0.000000
0.000095 0.000481 0.000000
0.000106 0.000491 0.000000
0.000101 0.000494 0.000000
0.000503 0.000808 0.000000
0.000509 0.000816 0.000000
0.000528 0.000840 0.000000
0.000614 0.000832 0.000000
0.000631 0.000828 0.000000
0.000639 0.000820 0.000000
0.000659 0.000823 0.000000
0.000652 0.000817 0.000000
0.000675 0.000821 0.000000
0.000686 0.000815 0.000000
0.000110 0.000300 0.000000
0.000110 0.000310 0.000000
0.000110 0.000320 0.000000
0.000110 0.000329 0.000000
0.000110 0.000339 0.000000
0.000111 0.000351 0.000000
0.000111 0.000359 0.000000
0.000110 0.000369 0.000000
0.000111 0.000378 0.000000
0.000110 0.000388 0.000000
0.000112 0.000400 0.000000
0.000111 0.000412 0.000000
0.000116 0.000423 0.000000
0.000107 0.000426 0.000000
0.000112 0.000434 0.000000
0.000106 0.000449 0.000000
0.000115 0.000461 0.000000
0.000111 0.000471 0.000000
0.000116 0.000480 0.000000
0.000111 0.000493 0.000000
0.000119 0.000492 0.000000
0.000473 0.000744 0.000000
0.000460 0.000655 0.000000
0.000563 0.000842 0.000000
0.000589 0.000839 0.000000
0.000580 0.000832 0.000000
[...]
POINT_DATA 6231
SCALARS density float 1
LOOKUP_TABLE default
4408.272853
4425.200563
4421.624357
4422.728929
4426.150670
4425.449927
4423.608409
4425.975553
4429.992982
4428.806492
4426.362060
4431.130584
4428.295385
4429.781760
4430.935152
4440.402907
4423.462140
4431.777454
4412.679915
4423.907974
4411.156950
4430.113094
4427.313340
4434.833054
4441.631101
4417.903462
4404.249011
4436.818779
4448.539648
4450.717256
4424.708176
4412.831358
4424.481391
4423.206599
4424.344149
4424.321111
4425.993077
4425.849797
4421.890782
4424.694018
4429.400221
4424.558807
4431.028898
4425.512516
4437.558006
4416.900595
4427.402118
4410.043430
4444.630557
4461.135982
4460.476761
4416.274806
4405.261871
4398.892171
4427.037881
4498.895213
4393.169505
4406.920549
4425.014632
4419.431742
4463.595390
4457.771930
4418.122728
4428.149612
4423.824476
4428.843905
4422.930906
4423.030663
4429.069275
4440.740156
4422.701890
4429.501181
4428.311454
4433.682159
4418.566781
4439.126968
4413.986181
4477.271861
4399.367830
4453.642360
4351.686674
4449.428915
4420.698419
4415.672585
4432.734974
4408.998007
4535.704634
4343.132357
4367.260117
4433.188652
4412.000179
4404.584277
4400.643296
4422.728321
4426.541799
4424.294812
4426.366545
4432.374758
4438.994180
4420.122635
4418.532467
4421.140325
4438.483644
4412.266999
4438.109935
4416.867803
4447.731286
4403.097678
4431.980093
4389.341373
4459.401836
4367.885476
4557.380996
4370.526017
4431.542956
4459.351163
4424.331086
4487.870839
4355.225057
4489.583990
4450.676547
4387.482656
4503.013137
4454.597888
4428.386628
4430.232869
4434.157848
4436.700035
4422.394328
4422.894772
4433.002045
4444.941480
4424.780717
4435.758381
4408.801768
4452.056854
4402.591781
4444.633674
4413.244713
4450.184165
4386.813693
4509.139228
4307.700359
4419.807407
4383.845109
4497.380664
4420.076714
4388.567691
4450.034429
4469.418510
4451.922897
4381.183898
4485.853737
4423.210167
4426.568814
4431.447178
4428.713415
4419.490786
4432.164214
4434.210659
4442.971859
4409.054566
4432.680891
4402.760143
4442.944707
4422.660330
4437.675933
4405.866657
4458.978404
4364.220486
4480.844565
4358.871232
4477.216667
4361.664489
4536.206093
4383.032824
4441.827420
4423.655409
4457.532358
4384.321029
4418.870977
4438.321503
4390.087073
4391.334793
4406.753996
4413.407203
4424.898723
4440.289053
4430.504327
4445.008952
4411.003258
4449.240175
4405.493374
4453.830713
4417.949842
4446.464515
4409.640747
4443.396049
4423.603731
4435.127176
4421.836887
4470.373440
4402.317873
4519.499235
4373.112547
4481.502701
4431.931128
4418.568080
4389.049055
4414.549454
4461.250482
4461.274160
4421.408647
4403.303622
4435.991749
4429.673617
4426.199221
4427.039447
4434.100271
4411.076334
4433.846825
4426.178982
4439.948093
4424.277757
4447.124699
4399.736556
4440.962791
4397.439808
4427.338802
4414.701660
4436.053221
4437.957628
4455.335604
4438.497828
4458.346003
4448.368932
4412.711324
4388.265227
4592.637538
4458.417419
4442.730663
4462.867568
4460.668872
4417.379375
4465.798252
4428.369678
4448.768186
4413.472229
4425.917571
4430.264070
4423.327168
4431.543337
4420.074059
4429.567241
4414.052141
4447.898053
4453.697081
4443.626452
4401.095837
4438.325422
4403.173235
4443.189425
4468.842751
4391.023130
4454.435887
4453.588100
4357.767637
4466.255171
4411.657746
4434.783608
4415.230865
4425.579408
4432.014049
4387.131375
4453.849256
4427.750679
4416.902994
4434.866984
4435.572566
4422.885352
4426.897070
4436.729226
4423.413261
4417.553698
4436.420753
4415.454704
4443.360250
4413.634911
4421.405365
4456.013417
4413.591770
4428.599809
4471.359500
4416.462764
4377.368618
4441.767236
4437.110211
4424.916046
4426.342980
4417.382305
4457.402814
4435.711292
4421.734020
4482.810049
4422.615279
4387.988342
4444.781487
4449.311037
4421.316760
4419.906598
4432.320198
4433.456058
4421.797591
4432.107930
4432.727849
4430.875750
4419.869356
4408.860276
4433.443597
4447.327256
4440.715530
4428.443712
4420.210015
4385.010709
4447.849011
4448.465312
4417.462848
4470.927486
4414.006170
4437.234402
4420.740044
4425.892713
4427.090485
4422.894606
4407.695029
4469.804797
4396.667297
4392.334294
4473.480518
4441.619215
4421.830079
4433.358234
4427.798054
4428.680965
4441.126566
4415.895010
4416.515035
4445.830375
4430.732451
4442.274392
4412.639924
4408.512269
4457.621167
4398.483040
4437.864758
4433.007511
4443.667047
4463.280938
4388.473627
4467.279675
4399.026050
4411.970501
4428.263229
4444.308474
4440.399838
4386.157253
4438.366509
4464.092122
4462.705392
4422.694072
4424.825114
4448.404416
4428.746557
4424.234308
4434.144161
4412.515376
4442.936787
4439.120400
4405.549916
4429.161565
4411.044645
4449.775701
4442.884618
4418.777172
4427.692915
4439.408004
4416.679330
4373.708350
4436.178544
4397.223581
4417.676013
4437.714433
4390.775929
4445.314296
4417.810238
4422.888188
4449.700435
4457.868464
4387.793045
4337.874059
4454.159971
4393.169072
4412.759838
4433.938271
4437.204031
4432.070713
4429.344030
4427.732718
4418.668546
4425.693668
4441.644389
4432.811216
4409.092333
4397.233095
4432.691348
4447.534780
4417.194750
4420.582844
4448.167192
4417.065651
4444.506242
4500.059834
4419.005058
4424.364955
4435.898068
4405.458444
4421.458237
4439.914567
4423.041861
4422.992887
4480.946689
4474.533524
4477.336304
4447.866514
4434.282337
4436.056863
4422.121847
4434.081515
4420.824164
4434.762863
4438.675189
4402.301934
4441.189100
4424.258115
4446.674287
4429.869602
4414.899975
4418.751178
4439.858955
4377.776388
4416.301352
4505.229750
4564.050478
4388.510219
4380.400556
4416.756479
4416.938128
4465.667800
4455.548038
4384.182587
4449.044429
4418.586265
4410.080721
4405.424505
4449.283128
4434.281559
4436.770928
4438.697116
4430.823486
4428.075536
4416.261856
4423.269523
4441.099841
4426.779817
4406.143157
4439.918370
4412.589321
4446.534740
4409.556253
4448.276263
4433.565627
4486.011424
4358.862273
4328.546979
4504.674286
4396.806545
4417.390885
4439.411990
4409.840340
4475.604738
4460.199381
4415.125686
4420.519655
4398.774416
4418.282594
4411.010320
4433.378635
4426.899056
4423.519191
4423.651141
4441.635714
4430.270252
4423.235506
4420.763061
4433.260223
4439.859749
4427.096936
4407.950457
4450.395946
4409.051976
4430.142634
4428.689911
4394.378798
4496.989701
4485.612939
4417.407585
4404.087193
4428.665822
4449.636164
4433.826236
4406.030568
4435.151418
4445.389958
4422.841348
4405.168849
4441.924227
4426.307260
4433.708181
4429.883129
4445.588520
4435.693534
4422.476296
4427.040562
4437.833127
4429.119895
4423.270053
4415.484378
4434.571879
4442.787436
4410.096717
4456.157870
4413.167789
4423.110528
4418.517026
4470.590752
4340.080677
4365.161437
4427.500188
4428.014429
4430.571181
4401.066894
4400.241155
4435.997530
4437.918414
4436.507320
4465.410075
4422.435295
4430.719942
4436.905052
4429.660104
4416.157071
4434.040442
4440.739703
4433.495019
4421.420216
4428.727507
4433.621924
4441.470074
4417.626649
4425.919000
4425.814519
4428.406600
4403.875721
4481.162315
4335.771723
4469.542177
4388.908146
4447.785677
4396.231576
4410.211592
4422.870634
4444.794346
4464.813610
4398.481481
4457.079150
4465.864786
4406.707652
4433.081683
4426.032860
4431.705242
4422.657346
4442.368331
4442.075633
4420.484075
4428.272243
4431.520375
4432.615646
4406.646851
4429.923795
4420.773198
4440.852731
4411.886542
4441.963195
4409.170499
4417.710465
4410.279663
4479.172567
4415.735947
4547.747125
4390.755585
4463.829694
4444.760365
4416.745286
4437.977956
4436.291975
4410.683681
4406.659344
4420.504405
4447.586838
4395.964426
4431.006183
4432.134490
4424.938740
4412.433933
4439.836249
4438.620326
4415.320227
4432.756469
4427.824072
4431.946880
4416.382968
4437.053282
4397.271617
4439.091090
4418.686257
4448.034598
4437.718810
4474.002069
4367.891703
4422.938427
4499.425848
4413.262925
4421.502336
4451.815673
4421.263373
4367.054213
4421.494893
4435.404088
4464.715404
4408.838845
4379.766619
4429.878828
4435.309982
4430.701788
4436.856718
4438.267104
4414.763816
4429.274592
4433.693477
4405.640867
4447.810111
4407.156720
4436.494190
4444.459247
4419.515993
4403.350476
4439.177198
4395.418227
4456.868365
4381.095633
4472.215290
4418.488379
4435.365445
4411.907322
4390.005153
4434.513396
4438.762762
4412.419643
4458.074316
4338.217850
4391.728218
4451.433562
4430.186243
4428.608047
4424.194396
4431.669822
4402.443596
4446.889710
4420.376673
4441.080970
4435.772665
4416.805541
4438.309373
4414.999681
4430.189885
4441.340098
4437.797190
4456.227840
4406.518499
4388.888201
4437.712718
4449.670415
4422.356572
4422.964233
4466.607286
4462.572494
4407.789449
4436.176563
4512.831388
4381.561750
4512.232259
4357.207204
4439.724857
4431.380692
4432.439149
4431.581610
4433.174942
4436.308611
4440.747587
4402.477810
4411.912463
4429.767974
4408.393199
4426.772136
4421.305659
4401.915589
4453.813823
4407.838841
4400.538662
4446.595017
4441.185634
4401.213809
4424.415856
4431.338815
4430.973205
4464.885848
4418.537885
4451.976768
4450.004315
4415.836401
4356.475311
4463.755825
4444.920077
4441.351796
4429.145718
4426.511096
4426.947793
4414.597115
4421.741000
4409.531786
4458.512894
4438.965504
4406.508875
4447.450964
4391.539400
4460.325995
4409.619494
4423.967186
4412.539620
4448.363408
4398.563171
4451.839004
4440.583088
4498.928614
4415.958040
4423.594260
4424.868526
4354.459636
4443.600172
4444.842867
4474.079907
4399.343686
4449.849120
4431.417630
4460.578665
4433.210197
4423.980852
4437.527647
4436.648038
4433.623601
4444.098982
4395.567137
4410.712251
4419.689170
4442.952870
4433.105048
4440.834437
4432.517155
4414.562429
4433.650792
4445.170393
4380.378597
4474.073124
4364.156701
4418.527716
4429.449807
4407.530161
4446.720877
4424.481554
4399.747119
4420.073528
4421.651049
4437.292249
4425.619555
4408.047404
4412.974111
4425.787274
4430.990948
4424.183756
4416.096488
4416.034739
4423.164717
4436.615548
4432.177924
4441.773780
4390.366072
4429.588300
4394.394302
4430.458592
4431.318952
4408.414525
4415.820771
4439.042283
4442.966235
4408.709448
4453.693309
4415.601943
4699.545945
4425.842682
4370.430899
4454.600022
4441.443658
4439.798942
4435.565912
4495.183614
4402.895689
4441.627906
4428.702042
4438.612868
4424.915091
4437.131307
4450.534221
4413.722329
4443.328865
4392.716014
4423.210132
4441.988894
4423.931053
4442.123769
4407.061925
4433.275775
4420.003331
4456.584833
4395.335650
4473.491568
4414.495306
4429.460554
4419.284102
4418.667953
4413.915524
4436.767616
4448.285432
4443.803937
4427.181907
4431.652754
4431.097710
4373.832280
4428.983927
4429.831423
4425.969656
4426.039908
4419.634895
4422.845490
4435.046747
4416.285877
4453.152563
4426.361948
4414.282656
4391.925681
4454.647031
4434.259592
4443.112615
4419.504928
4436.443923
4421.693205
4437.564173
4429.060627
4431.366950
4407.595835
4375.766323
4426.367040
4406.064777
4471.845897
4435.064063
4422.345053
4445.650730
4403.195613
4442.369734
4415.025133
4429.270077
4425.317333
4437.797767
4441.400901
4428.490906
4443.963634
4401.967683
4443.495154
4389.834441
4444.417226
4456.339601
4397.137407
4423.051837
4400.939670
4459.163795
4404.052912
4404.443445
4363.789230
4383.582144
4466.699690
4453.586181
4407.554280
4426.214831
4426.873988
4453.217163
4455.373731
4429.132016
4445.839011
4434.277979
4437.954781
4453.762863
4434.053448
4435.613173
4415.805382
4425.218992
4421.941376
4421.791798
4440.275167
4412.517769
4442.211178
4405.793494
4411.179966
4433.574436
4447.345977
4412.870498
4428.199453
4426.980521
4419.052607
4491.697437
4459.745618
4437.106797
4445.927376
4570.984746
4424.992344
4418.213097
4468.340716
4461.518168
4400.926705
4425.571190
4388.675331
4429.282873
4412.116133
4428.474777
4431.213759
4437.974053
4442.868549
4435.303825
4422.705411
4444.315909
4401.147949
4449.392982
4431.945316
4424.397333
4418.112690
4413.938678
4442.015304
4410.968465
4447.492509
4385.764035
4446.636326
4390.889912
4370.179619
4433.394889
4440.879064
4467.902075
4463.708645
4447.824298
4404.408851
4442.787160
4424.762903
4461.433928
4334.026639
4420.116269
4432.316211
4428.964110
4429.683608
4409.814727
4437.487007
4435.676484
4400.500200
4455.180227
4394.091740
4416.910148
4447.362364
4432.257212
4420.235685
4437.508948
4425.669873
4439.951099
4410.035070
4384.441444
4473.664512
4468.490376
4450.339427
4399.387936
4390.286452
4448.402138
4402.222741
4415.242773
4395.063960
4432.670400
4451.963083
4447.271153
4423.328887
4441.795261
4430.936741
4434.201686
4443.486767
4432.969106
4418.990383
4409.769411
4433.954436
4417.858121
4445.401052
4388.202216
4455.280047
4409.200563
4427.914575
4381.266396
4441.725761
4449.578433
4467.439745
4347.011291
4472.705509
4460.256684
4490.544135
4483.891877
4435.630121
4472.761434
4443.782104
4430.805072
4401.308847
4366.390383
4398.757687
4436.760898
4432.819345
4423.256015
4423.696660
4410.324114
4424.332727
4441.783553
4402.898168
4421.524094
4397.424309
4449.565800
4404.822673
4438.598181
4388.861776
4469.139256
4418.849767
4429.981292
4378.917139
4448.537632
4301.406994
4494.062030
4516.023714
4423.234464
4468.546280
4464.813189
4421.608816
4416.528190
4422.409429
4496.128667
4372.565506
4477.056006
4447.977937
4425.876793
4432.992756
4441.775719
4434.113137
4435.544778
4429.723337
4422.878987
4439.222970
4463.834708
4407.833509
4389.350085
4433.794633
4432.688914
4413.446402
4402.853520
4460.553758
4378.603607
4463.960033
4458.120331
4507.276825
4431.575959
4424.026788
4425.074579
4450.811095
4402.525028
4424.857417
4444.268787
4444.436222
4402.705977
4378.866986
4455.641283
4423.472043
4433.712491
4409.590424
4429.561086
4422.608323
4439.907556
4419.247502
4390.111407
4378.602857
4458.436786
4450.371131
4433.589473
4404.305416
4449.776987
4435.128700
4430.115491
4448.921087
4440.836324
4445.732478
4472.968352
4700.949717
4472.422473
4386.993664
4431.705245
4435.596609
4452.137987
4444.498741
4451.451333
4448.133902
4436.585002
4417.102765
4425.084893
4436.908063
4429.355203
4435.196784
4406.770412
4405.854792
4449.140727
4455.265902
4452.208696
4410.229511
4391.632000
4412.340251
4445.353421
4428.644910
4381.184636
4432.567641
4426.526916
4409.069254
4421.721420
4425.747272
4398.069443
4425.468592
4395.797483
4407.914322
4458.864145
4448.471412
4449.386707
4423.258157
4453.107941
4441.446960
4409.473942
4425.425355
4427.012423
4407.390466
4423.080753
4447.080405
4418.340341
4399.556156
4452.146084
4410.091178
4450.097900
4423.710653
4434.069053
4421.216113
4437.829869
4448.326241
4444.044450
4387.920897
4429.900129
4469.197393
4459.571214
4425.528570
4470.109826
4451.103918
4413.182303
4434.722208
4396.173349
4462.686762
4400.830260
4372.485561
4421.409222
4399.620184
4426.084345
4417.349160
4447.459047
4434.828988
4419.027723
4428.388974
4427.612693
4416.052487
4423.284190
4434.572611
4416.085022
4414.125130
4424.606502
4398.491586
4450.979853
4400.614665
4440.874406
4338.207053
4446.394703
4500.935640
4406.135499
4457.239503
4451.957735
4462.718830
4455.965009
4459.128490
4459.776138
4473.430007
4447.631493
4467.283476
4405.284675
4421.991572
4433.055987
4408.735951
4422.696728
4420.599605
4405.677373
4420.824940
4419.783725
4429.447784
4407.979362
4407.961691
4430.987826
4394.086817
4442.934464
4433.982978
4434.417088
4409.046482
4399.834328
4461.599069
4420.044092
4476.581294
4458.333052
4466.843712
4448.479938
4441.682404
4436.559963
4424.426253
4442.266160
4387.661000
4406.224855
4417.335499
4423.124214
4432.610582
4429.818102
4421.524443
4448.297369
4415.268663
4457.429723
4424.578272
4430.996634
4415.711996
4434.724603
4450.765910
4400.267810
4410.844289
4420.214448
4431.787355
4460.158472
4377.673094
4446.144146
4456.699329
4411.969432
4434.913354
4467.383717
4419.221860
4389.216658
4494.502489
4436.746784
4420.853102
4467.625843
4440.366344
4418.474411
4425.488308
4418.694864
4424.980892
4421.616644
4406.999455
4443.801754
4390.732377
4450.720590
4416.674354
4401.890296
4384.105970
4450.855763
4448.287801
4400.991113
4425.254802
4422.795272
4404.214173
4408.353733
4393.461182
4419.332933
4420.152653
4387.870274
4441.813277
4460.966044
4476.582482
4437.760920
4426.656116
4447.347265
4433.718924
4365.950938
4416.535217
4423.492396
4423.803046
4432.055364
4432.062192
4413.364624
4447.254626
4421.217438
4429.965546
4424.546895
4430.372146
4427.499653
4416.759718
4391.808470
4418.254712
4415.589227
4424.517568
4386.543827
4471.893547
4427.588890
4482.023916
4453.296593
4520.747369
4466.972553
4434.279155
4462.862031
4449.556423
4447.298478
4381.110474
4448.643836
4411.544903
4412.908132
4422.432258
4432.549313
4408.949211
4424.413906
4437.177624
4391.267379
4434.762617
4428.938918
4424.905439
4439.990780
4398.376766
4414.124122
4431.865507
4447.283962
4439.756705
4398.447720
4458.642534
4437.345835
4364.791514
4559.272496
4397.985137
4417.786299
4488.820991
4464.479608
4455.281054
4457.970133
4452.640380
4446.262318
4422.197109
4423.017286
4424.093224
4419.506176
4420.429806
4437.863592
4414.973641
4438.593661
4438.990732
4422.310332
4418.179387
4421.398599
4438.360798
4429.917496
4454.267041
4414.267360
4424.067832
4424.690554
4434.458223
4424.431880
4428.516617
4485.347876
4482.379733
4383.442057
4423.713457
4477.885084
4449.424277
4456.020282
4429.873932
4424.189987
4432.638866
4450.694671
4393.183607
4457.923642
4425.188924
4432.935866
4426.189840
4423.001557
4405.299105
4436.495497
4416.310507
4438.504801
4401.421425
4431.779173
4419.464382
4399.344764
4450.053228
4422.966039
4432.637690
4451.210029
4408.307737
4441.839049
4394.402905
4420.610341
4521.274810
4477.677062
4454.812858
4474.263485
4432.581636
4448.767706
4450.842794
4490.893044
4481.179402
4424.820755
4389.393950
4431.655425
4430.188932
4412.834011
4437.793303
4436.103172
4413.032337
4429.891043
4426.949699
4410.381042
4437.403792
4402.044290
4434.285527
4432.791954
4408.677759
4394.241249
4420.687595
4439.817715
4445.353049
4434.822715
4395.544490
4467.543754
4438.826668
4470.958519
4473.083671
4453.516171
4435.348903
4391.357992
4455.763497
4399.800890
4393.460083
4432.317957
4429.835730
4429.821307
4441.935891
4414.128107
4407.554391
4421.457940
4416.459193
4415.970262
4420.391082
4430.895618
4410.907541
4428.642750
4417.244692
4433.619765
4433.246030
4428.171178
4398.299492
4428.617253
4419.480564
4416.422501
4478.498064
4468.021446
4465.923807
4432.679289
4457.209071
4454.600996
4447.982399
4416.044294
4487.952724
4410.783222
4440.621538
4439.127536
4419.279163
4430.714352
4426.129324
4424.440233
4446.533554
4416.705298
4434.494116
4440.208588
4409.272049
4422.207304
4422.261111
4437.008332
4438.032739
4415.074894
4419.160194
4426.903424
4447.744976
4458.202224
4444.324044
4466.252089
4429.945858
4440.937232
4469.641155
4447.355474
4449.685225
4425.720967
4386.663237
4482.251134
4419.692868
4345.372895
4430.171121
4428.812927
4424.568967
4420.280659
4433.483214
4398.706003
4452.858288
4413.569077
4433.242212
4417.083230
4404.679143
4434.047840
4413.329619
4413.025612
4425.291925
4431.287646
4428.591644
4413.915153
4433.446019
4455.260307
4449.766411
4447.115085
4446.728546
4429.833713
4453.969511
4442.079832
4418.303462
4408.466737
4467.460803
4432.814003
4493.753576
4429.928495
4422.804111
4448.250767
4406.236314
4430.863484
4420.860011
4425.012234
4407.079084
4410.819168
4439.498563
4445.914126
4446.800650
4436.000033
4412.240852
4429.198254
4423.221223
4421.493907
4435.722337
4426.101281
4415.129451
4424.354661
4446.737417
4440.906687
4429.547014
4425.788395
4452.014580
4473.476956
4454.118815
4438.346541
4370.074232
4397.041014
4431.127896
4425.785281
4411.207412
4433.180790
4415.358578
4443.202491
4417.579120
4429.183090
4443.790535
4407.036991
4422.883216
4417.248652
4448.038002
4432.916751
4415.131395
4419.192458
4435.822379
4427.512156
4427.196428
4420.788779
4460.289624
4451.133393
4445.249174
4449.996706
4444.774198
4440.624249
4474.739579
4425.633800
4445.833822
4382.285599
4397.883217
4426.533941
4433.674108
4425.454478
4434.771642
4431.538211
4415.531242
4444.282241
4420.599553
4415.714477
4436.847403
4441.087482
4414.200184
4410.687426
4438.856095
4419.155239
4401.214477
4437.208036
4430.704784