# vtk DataFile Version 2.0
mfree iwf
ASCII

DATASET UNSTRUCTURED_GRID
POINTS 6231 float
0.000000 0.000300 0.000000
0.000000 0.000310 0.000000
0.000000 0.000320 0.000000
0.000000 0.000330 0.000000
0.000000 0.000340 0.000000
0.000000 0.000350 0.000000
0.000000 0.000360 0.000000
0.000001 0.000370 0.000000
0.000001 0.000380 0.000000
0.000001 0.000390 0.000000
0.000001 0.000400 0.000000
0.000001 0.000410 0.000000
0.000001 0.000420 0.000000
0.000001 0.000430 0.000000
0.000001 0.000440 0.000000
0.000001 0.000450 0.000000
0.000002 0.000460 0.000000
0.000002 0.000470 0.000000
0.000002 0.000480 0.000000
0.000001 0.000492 0.000000
0.000006 0.000501 0.000000
0.001036 0.001096 0.000000
0.001110 0.001130 0.000000
0.001054 0.001103 0.000000
0.001123 0.001134 0.000000
0.001145 0.001139 0.000000
0.001194 0.001142 0.000000
0.001203 0.001140 0.000000
0.001214 0.001134 0.000000
0.001227 0.001131 0.000000
0.001257 0.001131 0.000000
0.000010 0.000300 0.000000
0.000010 0.000310 0.000000
0.000010 0.000320 0.000000
0.000010 0.000330 0.000000
0.000010 0.000340 0.000000
0.000010 0.000350 0.000000
0.000010 0.000360 0.000000
0.000011 0.000370 0.000000
0.000011 0.000380 0.000000
0.000011 0.000390 0.000000
0.000011 0.000400 0.000000
0.000011 0.000410 0.000000
0.000011 0.000420 0.000000
0.000011 0.000430 0.000000
0.000011 0.000440 0.000000
0.000011 0.000450 0.000000
0.000012 0.000460 0.000000
0.000011 0.000472 0.000000
0.000013 0.000478 0.000000
0.000009 0.000492 0.000000
0.000013 0.000498 0.000000
0.001164 0.001135 0.000000
0.001180 0.001135 0.000000
0.001187 0.001136 0.000000
0.001193 0.001133 0.000000
0.001209 0.001127 0.000000
0.001220 0.001125 0.000000
0.001235 0.001120 0.000000
0.001245 0.001121 0.000000
0.001251 0.001119 0.000000
0.001254 0.001127 0.000000
0.000020 0.000300 0.000000
0.000020 0.000310 0.000000
0.000020 0.000320 0.000000
0.000020 0.000330 0.000000
0.000021 0.000340 0.000000
0.000020 0.000350 0.000000
0.000021 0.000360 0.000000
0.000021 0.000370 0.000000
0.000020 0.000380 0.000000
0.000021 0.000390 0.000000
0.000020 0.000400 0.000000
0.000022 0.000410 0.000000
0.000020 0.000420 0.000000
0.000022 0.000430 0.000000
0.000020 0.000440 0.000000
0.000023 0.000451 0.000000
0.000020 0.000460 0.000000
0.000022 0.000470 0.000000
0.000021 0.000482 0.000000
0.000024 0.000494 0.000000
0.000020 0.000497 0.000000
0.001130 0.001125 0.000000
0.001160 0.001130 0.000000
0.001170 0.001132 0.000000
0.001175 0.001129 0.000000
0.001184 0.001122 0.000000
0.001200 0.001125 0.000000
0.001226 0.001118 0.000000
0.001241 0.001116 0.000000
0.001247 0.001108 0.000000
0.001255 0.001105 0.000000
0.000030 0.000300 0.000000
0.000030 0.000310 0.000000
0.000030 0.000320 0.000000
0.000031 0.000330 0.000000
0.000030 0.000340 0.000000
0.000031 0.000350 0.000000
0.000030 0.000360 0.000000
0.000031 0.000370 0.000000
0.000031 0.000380 0.000000
0.000031 0.000390 0.000000
0.000031 0.000400 0.000000
0.000031 0.000410 0.000000
0.000031 0.000420 0.000000
0.000031 0.000430 0.000000
0.000031 0.000440 0.000000
0.000030 0.000450 0.000000
0.000031 0.000459 0.000000
0.000036 0.000473 0.000000
0.000029 0.000478 0.000000
0.000032 0.000488 0.000000
0.000032 0.000497 0.000000
0.000063 0.000500 0.000000
0.001152 0.001125 0.000000
0.001168 0.001117 0.000000
0.001195 0.001115 0.000000
0.001203 0.001108 0.000000
0.001210 0.001119 0.000000
0.001213 0.001112 0.000000
0.001224 0.001109 0.000000
0.001231 0.001107 0.000000
0.001253 0.001097 0.000000
0.000040 0.000300 0.000000
0.000040 0.000310 0.000000
0.000040 0.000320 0.000000
0.000040 0.000330 0.000000
0.000040 0.000340 0.000000
0.000040 0.000350 0.000000
0.000040 0.000360 0.000000
0.000040 0.000370 0.000000
0.000041 0.000380 0.000000
0.000040 0.000390 0.000000
0.000041 0.000399 0.000000
0.000041 0.000410 0.000000
0.000042 0.000420 0.000000
0.000040 0.000430 0.000000
0.000042 0.000439 0.000000
0.000043 0.000450 0.000000
0.000042 0.000460 0.000000
0.000037 0.000469 0.000000
0.000045 0.000477 0.000000
0.000043 0.000496 0.000000
0.000040 0.000498 0.000000
0.000932 0.000957 0.000000
0.001159 0.001116 0.000000
0.001177 0.001114 0.000000
0.001183 0.001110 0.000000
0.001194 0.001117 0.000000
0.001215 0.001103 0.000000
0.001235 0.001097 0.000000
0.001232 0.001087 0.000000
0.001243 0.001099 0.000000
0.001250 0.001088 0.000000
0.000050 0.000300 0.000000
0.000050 0.000310 0.000000
0.000050 0.000320 0.000000
0.000049 0.000330 0.000000
0.000051 0.000339 0.000000
0.000050 0.000350 0.000000
0.000051 0.000360 0.000000
0.000050 0.000371 0.000000
0.000052 0.000380 0.000000
0.000050 0.000390 0.000000
0.000052 0.000400 0.000000
0.000049 0.000410 0.000000
0.000053 0.000419 0.000000
0.000051 0.000430 0.000000
0.000053 0.000440 0.000000
0.000047 0.000451 0.000000
0.000054 0.000458 0.000000
0.000052 0.000469 0.000000
0.000055 0.000483 0.000000
0.000048 0.000488 0.000000
0.000050 0.000498 0.000000
0.001150 0.001132 0.000000
0.001105 0.001121 0.000000
0.001170 0.001107 0.000000
0.001182 0.001094 0.000000
0.001201 0.001099 0.000000
0.001216 0.001096 0.000000
0.001206 0.001091 0.000000
0.001225 0.001095 0.000000
0.001240 0.001087 0.000000
0.001246 0.001077 0.000000
0.000060 0.000300 0.000000
0.000060 0.000310 0.000000
0.000060 0.000321 0.000000
0.000060 0.000331 0.000000
0.000061 0.000340 0.000000
0.000059 0.000350 0.000000
0.000061 0.000359 0.000000
0.000060 0.000369 0.000000
0.000062 0.000380 0.000000
0.000059 0.000390 0.000000
0.000063 0.000399 0.000000
0.000060 0.000409 0.000000
0.000063 0.000419 0.000000
0.000058 0.000430 0.000000
0.000065 0.000440 0.000000
0.000060 0.000449 0.000000
0.000065 0.000460 0.000000
0.000055 0.000471 0.000000
0.000064 0.000475 0.000000
0.000068 0.000485 0.000000
0.000058 0.000496 0.000000
0.001139 0.001131 0.000000
0.001149 0.001116 0.000000
0.001165 0.001098 0.000000
0.001183 0.001101 0.000000
0.001195 0.001089 0.000000
0.001197 0.001080 0.000000
0.001226 0.001078 0.000000
0.001218 0.001086 0.000000
0.001236 0.001077 0.000000
0.001243 0.001069 0.000000
0.000070 0.000300 0.000000
0.000070 0.000310 0.000000
0.000070 0.000319 0.000000
0.000071 0.000329 0.000000
0.000071 0.000340 0.000000
0.000070 0.000351 0.000000
0.000072 0.000359 0.000000
0.000068 0.000372 0.000000
0.000081 0.000376 0.000000
0.000069 0.000390 0.000000
0.000073 0.000400 0.000000
0.000068 0.000411 0.000000
0.000074 0.000421 0.000000
0.000068 0.000429 0.000000
0.000075 0.000438 0.000000
0.000066 0.000452 0.000000
0.000077 0.000458 0.000000
0.000073 0.000470 0.000000
0.000076 0.000486 0.000000
0.000068 0.000495 0.000000
0.000076 0.000496 0.000000
0.000923 0.000936 0.000000
0.001139 0.001119 0.000000
0.001159 0.001108 0.000000
0.001177 0.001078 0.000000
0.001194 0.001099 0.000000
0.001208 0.001080 0.000000
0.001218 0.001078 0.000000
0.001211 0.001069 0.000000
0.001232 0.001067 0.000000
0.001239 0.001059 0.000000
0.000080 0.000300 0.000000
0.000080 0.000310 0.000000
0.000081 0.000321 0.000000
0.000079 0.000331 0.000000
0.000081 0.000340 0.000000
0.000080 0.000350 0.000000
0.000082 0.000361 0.000000
0.000074 0.000370 0.000000
0.000075 0.000384 0.000000
0.000080 0.000391 0.000000
0.000089 0.000397 0.000000
0.000079 0.000410 0.000000
0.000086 0.000417 0.000000
0.000078 0.000431 0.000000
0.000086 0.000445 0.000000
0.000076 0.000448 0.000000
0.000085 0.000464 0.000000
0.000074 0.000470 0.000000
0.000087 0.000472 0.000000
0.000085 0.000482 0.000000
0.000084 0.000495 0.000000
0.001129 0.001130 0.000000
0.001100 0.001126 0.000000
0.001162 0.001087 0.000000
0.001172 0.001094 0.000000
0.001186 0.001084 0.000000
0.001191 0.001072 0.000000
0.001201 0.001071 0.000000
0.001221 0.001065 0.000000
0.001228 0.001059 0.000000
0.001235 0.001050 0.000000
0.000090 0.000300 0.000000
0.000090 0.000310 0.000000
0.000090 0.000319 0.000000
0.000090 0.000329 0.000000
0.000091 0.000341 0.000000
0.000089 0.000349 0.000000
0.000092 0.000361 0.000000
0.000089 0.000369 0.000000
0.000092 0.000379 0.000000
0.000089 0.000387 0.000000
0.000084 0.000404 0.000000
0.000093 0.000409 0.000000
0.000086 0.000425 0.000000
0.000096 0.000426 0.000000
0.000089 0.000435 0.000000
0.000097 0.000455 0.000000
0.000087 0.000453 0.000000
0.000098 0.000472 0.000000
0.000106 0.000480 0.000000
0.000089 0.000495 0.000000
0.000094 0.000495 0.000000
0.000941 0.000973 0.000000
0.001133 0.001113 0.000000
0.001121 0.001120 0.000000
0.001151 0.001106 0.000000
0.001169 0.001075 0.000000
0.001195 0.001063 0.000000
0.001209 0.001061 0.000000
0.001215 0.001055 0.000000
0.001224 0.001050 0.000000
0.001231 0.001041 0.000000
0.000100 0.000300 0.000000
0.000100 0.000310 0.000000
0.000100 0.000321 0.000000
0.000100 0.000331 0.000000
0.000101 0.000339 0.000000
0.000099 0.000350 0.000000
0.000101 0.000360 0.000000
0.000100 0.000370 0.000000
0.000101 0.000381 0.000000
0.000100 0.000391 0.000000
0.000100 0.000400 0.000000
0.000103 0.000407 0.000000
0.000101 0.000418 0.000000
0.000100 0.000436 0.000000
0.000108 0.000442 0.000000
0.000096 0.000445 0.000000
0.000107 0.000460 0.000000
0.000096 0.000465 0.000000
0.000094 0.000481 0.000000
0.000106 0.000491 0.000000
0.000101 0.000494 0.000000
0.001059 0.001106 0.000000
0.001069 0.001111 0.000000
0.001094 0.001123 0.000000
0.001174 0.001084 0.000000
0.001184 0.001070 0.000000
0.001185 0.001059 0.000000
0.001205 0.001052 0.000000
0.001196 0.001049 0.000000
0.001218 0.001044 0.000000
0.001226 0.001033 0.000000
0.000110 0.000300 0.000000
0.000110 0.000310 0.000000
0.000110 0.000319 0.000000
0.000110 0.000329 0.000000
0.000110 0.000341 0.000000
0.000112 0.000351 0.000000
0.000109 0.000359 0.000000
0.000113 0.000370 0.000000
0.000110 0.000378 0.000000
0.000110 0.000389 0.000000
0.000112 0.000400 0.000000
0.000110 0.000414 0.000000
0.000116 0.000422 0.000000
0.000105 0.000427 0.000000
0.000114 0.000432 0.000000
0.000107 0.000450 0.000000
0.000116 0.000462 0.000000
0.000110 0.000470 0.000000
0.000116 0.000480 0.000000
0.000111 0.000493 0.000000
0.000119 0.000492 0.000000
0.001004 0.001063 0.000000
0.000950 0.000992 0.000000
0.001126 0.001108 0.000000
0.001146 0.001096 0.000000
0.001136 0.001093 0.000000
[...]
POINT_DATA 6231
SCALARS density float 1
LOOKUP_TABLE default
4415.074394
4427.289641
4423.283626
4423.293464
4423.852529
4422.930674
4425.776622
4427.087390
4428.267070
4429.963819
4429.511747
4433.628069
4428.467301
4429.860185
4431.736980
4440.073287
4423.384299
4431.923271
4413.692516
4424.140828
4411.206587
4422.724422
4423.968000
4432.338191
4437.092720
4420.852602
4397.612078
4428.521559
4447.470993
4450.107895
4416.457426
4417.496715
4424.673838
4425.969512
4428.528938
4429.295477
4428.820759
4426.035381
4428.238043
4428.595484
4429.453161
4422.953644
4426.891185
4422.826696
4439.132470
4417.281833
4428.060930
4411.007187
4441.912618
4462.997378
4459.690021
4416.232229
4406.770291
4416.346315
4436.467975
4511.766413
4396.127310
4406.886585
4422.693703
4400.319514
4450.322464
4437.970154
4419.959046
4431.472446
4426.520937
4423.784403
4424.415416
4427.114187
4427.211471
4432.263148
4419.731639
4433.558978
4427.344379
4442.110604
4422.967018
4437.326961
4414.253192
4474.562517
4400.907307
4454.935531
4351.501352
4450.853118
4421.507617
4427.495013
4440.053265
4418.908445
4505.252509
4326.978703
4361.913048
4413.842337
4426.838936
4426.652968
4403.014080
4428.274401
4429.766808
4424.765271
4434.636928
4434.086536
4432.554628
4424.036484
4436.652329
4425.074225
4438.845712
4412.215485
4429.838038
4415.264885
4446.209700
4407.662955
4430.334444
4388.953349
4451.636773
4373.680365
4550.313739
4373.591231
4435.650150
4467.863500
4429.130681
4466.103948
4351.359039
4484.386181
4447.091440
4419.884880
4475.246874
4430.225060
4432.544347
4428.530479
4432.587149
4436.845948
4420.317961
4438.758953
4430.343983
4432.354561
4423.223214
4431.199672
4418.918813
4450.551980
4411.948933
4444.585156
4413.014518
4448.737997
4388.299163
4512.470144
4310.443684
4418.718378
4384.956949
4430.413694
4404.071342
4438.238409
4449.030819
4498.058405
4434.431058
4401.598358
4483.683773
4444.963561
4415.418076
4429.574108
4432.367999
4428.322589
4433.253595
4434.592638
4436.160655
4420.898722
4439.865065
4422.224169
4439.240295
4416.715865
4438.941524
4400.140945
4449.558758
4374.487398
4480.320743
4361.967298
4471.496782
4363.483607
4538.107849
4381.140975
4437.110796
4428.927844
4451.025536
4451.014433
4455.794766
4439.804841
4401.227651
4412.643885
4419.214412
4420.758004
4427.563904
4440.978864
4421.560890
4437.398683
4435.582601
4438.622487
4414.137173
4443.140097
4399.704565
4444.107615
4426.462279
4440.961663
4423.987753
4445.319934
4409.312293
4466.620048
4402.190678
4514.702237
4376.784296
4469.481377
4433.359304
4412.998293
4391.679861
4403.294554
4410.087724
4454.495824
4425.136132
4418.980056
4409.868367
4414.231866
4433.949985
4432.353868
4430.408500
4424.074553
4438.086728
4398.767408
4447.310262
4426.867789
4423.336989
4406.657872
4452.419476
4386.326650
4435.517303
4409.854624
4433.356398
4440.457125
4458.031870
4433.485100
4451.413544
4455.792057
4414.458726
4386.800834
4433.704555
4464.604428
4444.784176
4410.312182
4394.544172
4426.475818
4450.994558
4436.175072
4439.998940
4413.441779
4430.130966
4426.904623
4424.060119
4426.673309
4427.491206
4437.324966
4416.082446
4444.700491
4428.214230
4441.787700
4418.158064
4434.806065
4422.896252
4438.897083
4451.737110
4399.705275
4459.210062
4449.039915
4366.790237
4466.872280
4409.385503
4428.901366
4414.734801
4435.050154
4428.239769
4391.992935
4451.763978
4440.250576
4401.883586
4438.111690
4436.321953
4424.049227
4434.472613
4435.725895
4406.538329
4436.477108
4421.250465
4434.862429
4447.476813
4431.870681
4421.185602
4447.563284
4404.606715
4426.192439
4455.320547
4413.220770
4390.719157
4428.914761
4408.472381
4438.499566
4423.334378
4412.839050
4427.589950
4414.920905
4437.499426
4475.837448
4401.441999
4383.575220
4435.507734
4440.092087
4432.745021
4412.897391
4428.754326
4428.722421
4421.690260
4445.057055
4431.939788
4420.349588
4440.405626
4401.567064
4447.944398
4421.457842
4437.110293
4444.170014
4423.153295
4401.025811
4452.947545
4457.509440
4429.014212
4464.851021
4427.005970
4428.905707
4415.779496
4425.535464
4435.013191
4427.291303
4453.206119
4460.640949
4392.153853
4409.724962
4471.447387
4450.957666
4424.421336
4429.138825
4435.642683
4434.538564
4422.270635
4424.728948
4424.016921
4436.377008
4435.944994
4430.584692
4423.545535
4411.714373
4436.728160
4408.946023
4445.740612
4418.373537
4417.845979
4476.845284
4405.359401
4456.752545
4404.096845
4410.227146
4437.834186
4437.308493
4407.159629
4386.940048
4393.843394
4448.100993
4451.192459
4409.392127
4424.188790
4453.103202
4433.567116
4430.107367
4424.126967
4432.756604
4431.287657
4433.236713
4408.638168
4439.379875
4395.758676
4450.996544
4438.616665
4416.754280
4446.624127
4458.447393
4410.883620
4403.262170
4419.469024
4380.245475
4435.395317
4436.620766
4392.178632
4440.662645
4415.340300
4428.388241
4453.117748
4441.782953
4416.763760
4350.091646
4460.142023
4387.936996
4418.867294
4439.479971
4429.131319
4429.576302
4440.854374
4413.167999
4440.138867
4430.179543
4424.838136
4450.701216
4409.245868
4408.963335
4411.436360
4440.159528
4417.201977
4397.268007
4468.406354
4408.564355
4467.425772
4485.886928
4417.729197
4439.004550
4435.548155
4418.585285
4423.952682
4424.454077
4437.346460
4457.612917
4460.557900
4464.774414
4494.029718
4454.347192
4432.663514
4432.479763
4435.197546
4416.933972
4440.652241
4422.402155
4426.922353
4416.857421
4415.072221
4414.081008
4452.963251
4417.842889
4455.147970
4416.393628
4434.707078
4357.575540
4414.773220
4486.041520
4572.351468
4390.525111
4379.863769
4426.489237
4420.823044
4448.778589
4454.961957
4410.427424
4440.387971
4426.876188
4404.037137
4405.707595
4447.443013
4425.862196
4436.055726
4433.939882
4413.560715
4443.306914
4398.998416
4438.573640
4427.256801
4433.597883
4405.112394
4453.124830
4423.122094
4431.924609
4422.117339
4449.262175
4441.551460
4523.664435
4343.421274
4325.496361
4462.152666
4391.958092
4415.568256
4430.878055
4436.389002
4479.167728
4446.140780
4442.364712
4434.818692
4398.817843
4423.095572
4412.935516
4432.281891
4428.684871
4429.927548
4426.231983
4433.739046
4430.941461
4434.116196
4382.252260
4425.892464
4449.319842
4445.097823
4430.907704
4453.844884
4397.437640
4434.575850
4417.613717
4410.482475
4486.560536
4472.969672
4421.497651
4405.599178
4428.143560
4451.103473
4404.773204
4370.270624
4460.974380
4466.481825
4421.979233
4405.333669
4431.868873
4429.955535
4436.123040
4417.809094
4439.740967
4436.825473
4429.835078
4416.614292
4410.718222
4445.566612
4437.988099
4412.385994
4435.829103
4423.088499
4403.710930
4442.008202
4420.232816
4435.774672
4397.610577
4469.372702
4376.628740
4393.433660
4418.510349
4421.577871
4439.202052
4440.655717
4398.502251
4469.025317
4441.724142
4398.256604
4467.482954
4428.155444
4439.107463
4429.760112
4426.344259
4437.773951
4416.022862
4432.712773
4441.160954
4416.256428
4401.800761
4430.445217
4433.996427
4432.980414
4446.906774
4449.047805
4416.806052
4415.488086
4445.635393
4391.191560
4432.062532
4425.042268
4436.059071
4386.510483
4423.150263
4434.332529
4436.397482
4443.545815
4416.697952
4476.509624
4479.418310
4412.816214
4421.574274
4420.912488
4427.680534
4428.462258
4424.067775
4423.337674
4439.823716
4404.856350
4446.423826
4432.183741
4425.289392
4415.187566
4420.382027
4413.448178
4437.788226
4418.192345
4422.893034
4450.094015
4379.957474
4470.862279
4425.309531
4553.481665
4376.872019
4465.041890
4420.867644
4436.034667
4448.105590
4381.246206
4464.377770
4390.709573
4412.066353
4414.316456
4421.018830
4429.836742
4434.970561
4427.032471
4433.338833
4417.992975
4453.949490
4405.705695
4411.631029
4382.545014
4450.480527
4451.017685
4436.215926
4426.490133
4437.144565
4433.958156
4434.403335
4468.389656
4476.076767
4388.162732
4385.408937
4434.838599
4416.786662
4430.868214
4461.146186
4438.949702
4406.018767
4431.906960
4451.731679
4457.497724
4424.723979
4411.611031
4431.868746
4429.049799
4423.234162
4439.364805
4412.232025
4451.712441
4404.092573
4429.575026
4443.938048
4417.364791
4422.979566
4418.222477
4456.281676
4426.068179
4390.452522
4468.107697
4422.217517
4404.858048
4394.340953
4461.380787
4414.913966
4449.897165
4420.190486
4429.347524
4430.860205
4388.459127
4373.775305
4451.045446
4356.257600
4425.998244
4443.826356
4427.614909
4434.560788
4430.437706
4435.142984
4427.548645
4402.953390
4443.632190
4417.989320
4405.319009
4444.293794
4404.844780
4429.988955
4454.039092
4421.831703
4394.429004
4451.339759
4414.827683
4413.385534
4450.820911
4449.745581
4428.947581
4424.121319
4418.682702
4458.013158
4411.315714
4433.192713
4475.818024
4342.535440
4486.946537
4388.463007
4419.429801
4428.977749
4428.040500
4429.826573
4410.217804
4443.728484
4438.609449
4430.232559
4415.742581
4406.345555
4440.039960
4414.500354
4440.492381
4398.072560
4434.593120
4428.735165
4424.147906
4415.348698
4447.455769
4401.254873
4433.551425
4423.407769
4412.583413
4439.817429
4419.113150
4443.223154
4466.004322
4423.308981
4401.140015
4446.851200
4438.003947
4444.247132
4427.790273
4422.797521
4438.310130
4442.133551
4407.797476
4421.028688
4411.780887
4446.061641
4438.208351
4418.961524
4437.507461
4429.782047
4440.851441
4450.321763
4388.266038
4453.255969
4402.960512
4454.597717
4436.278815
4472.699191
4412.993208
4422.068748
4457.668985
4421.341861
4432.709160
4452.996452
4428.506139
4463.115454
4423.437842
4420.245984
4434.035477
4434.948135
4441.358783
4410.178781
4435.995719
4434.486927
4436.221222
4439.715624
4414.509663
4411.339456
4442.572139
4441.678616
4444.405401
4431.164296
4426.383196
4437.976264
4432.886491
4404.141307
4450.498471
4362.422056
4426.613787
4430.817988
4414.962682
4457.395231
4432.789808
4435.271431
4392.947375
4447.611811
4423.197964
4448.006538
4410.276045
4421.465203
4423.562224
4438.597038
4418.027261
4436.133343
4411.507480
4427.780454
4413.397516
4449.893898
4432.796381
4439.137869
4400.378974
4462.787442
4394.660299
4409.672267
4400.597270
4447.087806
4430.297858
4459.838389
4420.573469
4435.785781
4428.115804
4433.513620
4422.453161
4394.541972
4421.808670
4443.619274
4419.489269
4409.632838
4470.773237
4408.771904
4443.261279
4423.852924
4432.233018
4433.396905
4436.586588
4418.368530
4451.753414
4420.138855
4426.479140
4399.722740
4448.718586
4400.376394
4414.108151
4425.856371
4445.774179
4424.261621
4451.596007
4406.180991
4457.888002
4420.457923
4436.447578
4412.866021
4423.899457
4429.227622
4428.329987
4415.532231
4420.006799
4419.013543
4447.805015
4416.230905
4405.958869
4431.194330
4433.944062
4429.866842
4413.307693
4430.407984
4431.035807
4421.273482
4425.145358
4439.276879
4419.029849
4423.292685
4433.635031
4445.441512
4430.702558
4437.907470
4394.516131
4446.187049
4402.172276
4452.439132
4426.864777
4431.922927
4409.350176
4431.446566
4416.425336
4431.562268
4472.726093
4399.412916
4414.003260
4444.040619
4409.005301
4434.739169
4407.084490
4427.907415
4423.663388
4440.385537
4440.443174
4429.479227
4424.327910
4435.371956
4421.177179
4437.936253
4428.450909
4409.492381
4439.190649
4426.514361
4414.395596
4422.374369
4428.731802
4418.028309
4377.000917
4378.629548
4460.544107
4429.204562
4408.318711
4422.157525
4409.967181
4452.031850
4432.201966
4405.278709
4464.657233
4422.043823
4421.808385
4446.846383
4433.015040
4425.385511
4429.788225
4403.865516
4440.510487
4422.504266
4432.826874
4434.539247
4408.949733
4437.866218
4460.768493
4411.816404
4438.779628
4444.090696
4431.870760
4399.978605
4419.634574
4492.513871
4461.714632
4428.298111
4436.118414
4435.711434
4439.428633
4418.518961
4424.529872
4417.903952
4436.651166
4417.451900
4435.119847
4412.389986
4436.282366
4430.403612
4432.267211
4436.060670
4442.068009
4436.063295
4429.980047
4421.131661
4442.613906
4445.425775
4414.189988
4410.050628
4433.393621
4449.788599
4403.991103
4435.761052
4459.961640
4386.146656
4448.778485
4404.996084
4390.398195
4430.451300
4434.931764
4428.362205
4390.176331
4471.243962
4396.008595
4423.235111
4416.874317
4470.691643
4354.064083
4414.982063
4432.437373
4433.327522
4418.130204
4427.579437
4409.719239
4453.909244
4435.637480
4401.500085
4410.127923
4450.163676
4448.896254
4417.296772
4408.485451
4464.000468
4440.539920
4436.600680
4389.126243
4389.895618
4466.333727
4454.730315
4440.568537
4405.943294
4404.773687
4429.762487
4441.601944
4441.715846
4376.123435
4468.685674
4432.268924
4463.842203
4417.659414
4433.182970
4437.007363
4430.197724
4438.614745
4440.954136
4412.246731
4406.987397
4456.326424
4432.134070
4407.491540
4402.392180
4451.188184
4436.594964
4412.691947
4400.973923
4437.308221
4463.452918
4445.366212
4334.722459
4469.774427
4463.963007
4436.025679
4473.391984
4425.181116
4442.955526
4457.749722
4438.623162
4419.707561
4402.961910
4404.854791
4439.468618
4431.082668
4433.955840
4417.367613
4417.019921
4420.210918
4446.495634
4432.668631
4413.991468
4401.385623
4465.547266
4423.570285
4420.797150
4416.547810
4443.324361
4404.140534
4447.524263
4374.777977
4446.751404
4314.568912
4503.050870
4437.546519
4417.297957
4429.946758
4486.221169
4424.701002
4442.052560
4398.225306
4476.812375
4356.565069
4436.872175
4449.072455
4429.862937
4434.892349
4427.312967
4445.143841
4419.093669
4424.005780
4423.040977
4447.108329
4435.774992
4395.546287
4422.678941
4443.102498
4404.098624
4464.913220
4381.000812
4460.895800
4392.005634
4477.373708
4474.629902
4504.414852
4412.518423
4415.400241
4382.500297
4438.296433
4405.094060
4435.616163
4452.186657
4447.179872
4447.016221
4354.331054
4454.581326
4425.162611
4435.467486
4418.134247
4427.052060
4411.445658
4431.290138
4428.090691
4400.526176
4425.800952
4457.583097
4429.220383
4440.223639
4417.678706
4416.159742
4446.175018
4432.081186
4434.547504
4427.280653
4434.733834
4506.449330
4450.654385
4433.811687
4440.771346
4421.893586
4389.474515
4459.749947
4413.232093
4437.158926
4442.161139
4440.179184
4411.695939
4426.575381
4428.637856
4433.756620
4437.882507
4433.222195
4442.973761
4440.841610
4448.989575
4392.956524
4403.878592
4447.565095
4461.074114
4419.286964
4392.210168
4405.725800
4412.856408
4454.370478
4398.864769
4388.617295
4428.019474
4392.383352
4415.997574
4423.844668
4435.139177
4408.284592
4446.602797
4383.448969
4397.894514
4478.713840
4471.787904
4409.481429
4429.515823
4430.914428
4416.481514
4424.590204
4428.674016
4416.424733
4395.891148
4437.784368
4433.524995
4425.695891
4459.648410
4430.719063
4444.116090
4444.288461
4446.606112
4471.893316
4383.988279
4445.627957
4440.979194
4446.430088
4430.268212
4432.315435
4425.010706
4450.946640
4443.519997
4470.280741
4468.527208
4440.789386
4379.101300
4415.276245
4400.471774
4431.975283
4423.000339
4442.790959
4437.841179
4408.664948
4431.076571
4447.240431
4453.014381
4430.558710
4412.667971
4443.775932
4405.240708
4399.988850
4424.123290
4425.443576
4433.160969
4451.687679
4425.151919
4452.839321
4430.664681
4429.234470
4435.480486
4437.598033
4422.951217
4427.213483
4448.503446
4412.455128
4490.635858
4398.949391
4452.780620
4426.957594
4429.502078
4429.469958
4414.202354
4434.776692
4429.525386
4415.865455
4415.232661
4426.357488
4435.640922
4445.532623
4394.413021
4464.815362
4421.796368
4434.234116
4394.548354
4440.474464
4397.993497
4394.639529
4415.874756
4457.964507
4437.190497
4427.207902
4460.135854
4428.226669
4423.441920
4438.745289
4428.817502
4444.706264
4349.763898
4389.368460
4403.047502
4417.562381
4431.189534
4435.503293
4407.077782
4454.166426
4409.900342
4411.320940
4440.618776
4418.809116
4394.421839
4411.626685
4440.448463
4415.195888
4410.383891
4436.646441
4408.051305
4455.855000
4385.649065
4430.925610
4431.692948
4423.716391
4419.363936
4424.802783
4415.078920
4444.005904
4467.024082
4443.178756
4361.843167
4452.729827
4471.958065
4415.289602
4427.439176
4428.889224
4424.375791
4454.072022
4404.977612
4433.464777
4459.928815
4450.058108
4449.130279
4423.619429
4413.488800
4437.499604
4460.735126
4429.135055
4432.703243
4420.187285
4391.721985
4458.279114
4360.605942
4422.547438
4432.630891
4434.416390
4425.151085
4447.964369
4413.623437
4408.187150
4402.915461
4374.077934
4452.159242
4397.845842
4432.163349
4433.496149
4432.116358
4412.750076
4443.378159
4414.037670
4417.940642
4403.567015
4441.267972
4446.904703
4399.919530
4408.477921
4422.378982
4421.332324
4384.378421
4405.781179
4476.164847
4378.727893
4454.830795
4457.737789
4455.277787
4430.950403
4432.074618
4431.481563
4420.185827
4457.497929
4420.981539
4462.887281
4470.289059
4465.799023
4433.008027
4401.152305
4420.541350
4441.397381
4428.537786
4408.905420
4435.585526
4444.283735
4419.930822
4447.877114
4424.812290
4431.251889
4454.485524
4425.660720
4421.090767
4417.016063
4448.985351
4426.271865
4434.244751
4444.309535
4392.079700
4472.973935
4442.840897
4435.471938
4402.518611
4436.798575
4414.296959
4458.048622
4393.651971
4420.482382
4328.481053
4402.701551
4402.224176
4436.891783
4418.967441
4435.021436
4440.265190
4411.412818
4432.963542
4413.818281
4416.936297
4419.591678
4430.555222
4431.928806
4434.368048
4413.335458
4447.473238
4460.957946
4418.562706
4393.972521
4472.838273
4376.940108
4437.878001
4413.779023
4403.554714
4445.236022
4398.181575
4427.525451
4461.915219
4442.751185
4397.048906
4405.556855
4466.956271
4447.567715
4433.869883
4422.949382
4426.757187
4435.512332
4428.916766
4415.622387
4452.319162
4441.063826
4425.119590
4433.896090
4438.252963
4419.322288
4425.847980
4430.138430
4460.065103
4402.326091
4434.518781
4461.916050
4432.116480
4333.699384
4403.597071
4425.422932
4420.520190
4436.702740
4454.595719
4473.551210
4405.942009
4444.732567
4456.436119
4399.643681
4360.842034
4421.534001
4438.714062
4435.660892
4406.647600
4440.639346
4432.612383
4414.309687
4428.872138
4418.004106
4417.495757
4425.055015
4429.949495
4437.568219
4393.406703
4453.139241
4379.896912
4419.926222
4456.158949
4388.280660
4523.089459
4393.523530
4430.258400
4414.333965
4440.181316
4435.574935
4446.212534
4443.794743
4418.712660
4498.367447
4452.146748
4417.822974
4430.692299
4429.857200
4419.388987
4428.565934
4431.997122
4431.976844
4448.305795
4427.193398
4431.449242
4420.546553
4399.852091
4422.612979
4403.315711
4455.776770
4440.247736
4449.734380
4436.937133
4417.912351
4428.136270
4427.365691
4479.482320
4440.449061
4459.169931
4423.240548
4457.845404
4473.038681
4433.026550
4431.854548
4462.552556
4435.044097
4485.375412
4434.955411
4426.401813
4433.435935
4436.525122
4404.125669
4436.799699
4398.112187
4449.163793
4413.124737
4419.378499
4447.487466
4414.061468
4432.352761
4433.886495
4401.211660
4444.403222
4409.133740
4420.538706
4414.583188
4442.528811
4440.496998
4437.327699
4462.332246
4470.626294
4451.334387
4431.872848
4368.364915
4389.306822
4377.279077
4345.536772
4393.439735
4429.652040
4431.033274
4421.194581
4416.352826
4443.811046
4446.676058
4423.143961
4433.492109
4437.713393
4453.317208
4427.620809
4452.759642
4433.145178
4423.081134
4458.424464
4399.629708
4398.566710
4452.514451
4415.593987
4429.179298
4443.706082
4418.161452
4433.255183
4429.575784
4468.096958
4439.482049
4358.511993
4453.949927
4489.417810
4393.992259
4446.309109
4431.328564
4422.775191
4435.809190
4422.729467
4425.952605
4404.160891
4417.704299
4427.503851
4479.937872
4420.329600
4427.299063
4426.519587
4423.314520
4441.071107
4409.397900
4441.990280
4434.979692
4446.075428
4380.361963
4413.347272
4417.773155
4436.191121
4384.141350
4439.298032
4370.490855
4395.008661
4457.956398
4471.733393
4474.235021
4391.301737
4423.139434
4431.629790
4419.055814
4425.196188
4429.743654
4454.622799
4451.592242
4414.035636
4413.546786
4398.499805
4425.860326
4397.450725
4445.761913
4433.850512
4422.540230
4454.392530
4411.061899
4429.955282
4465.607243
4476.021523
4379.395081
4422.930004
4415.383348
4435.303911
4420.258175
4394.926797
4443.756414
4403.158714
4461.161938
4463.382239
4416.989071
4406.179872
4420.870823
4441.879329
4422.845995
4423.422825
4430.083971
4414.968444
4424.358977
4446.198400
4409.962121
4425.837507
4428.125523
4436.674081
4412.307878
4437.644329
4419.345023
4399.927326
4446.707709
4452.873895