# vtk DataFile Version 2.0
mfree iwf
ASCII

DATASET UNSTRUCTURED_GRID
POINTS 6231 float
0.000000 0.000300 0.000000
0.000000 0.000310 0.000000
0.000000 0.000320 0.000000
0.000000 0.000330 0.000000
0.000000 0.000340 0.000000
0.000000 0.000350 0.000000
0.000001 0.000360 0.000000
0.000001 0.000370 0.000000
0.000001 0.000380 0.000000
0.000001 0.000390 0.000000
0.000001 0.000400 0.000000
0.000001 0.000410 0.000000
0.000001 0.000420 0.000000
0.000001 0.000430 0.000000
0.000001 0.000440 0.000000
0.000002 0.000450 0.000000
0.000002 0.000460 0.000000
0.000002 0.000471 0.000000
0.000002 0.000480 0.000000
0.000002 0.000492 0.000000
0.000006 0.000501 0.000000
0.000226 0.000579 0.000000
0.000227 0.000648 0.000000
0.000226 0.000595 0.000000
0.000228 0.000663 0.000000
0.000231 0.000685 0.000000
0.000247 0.000733 0.000000
0.000250 0.000736 0.000000
0.000259 0.000747 0.000000
0.000267 0.000758 0.000000
0.000291 0.000790 0.000000
0.000010 0.000300 0.000000
0.000010 0.000310 0.000000
0.000010 0.000320 0.000000
0.000010 0.000330 0.000000
0.000010 0.000340 0.000000
0.000010 0.000350 0.000000
0.000011 0.000360 0.000000
0.000011 0.000370 0.000000
0.000011 0.000380 0.000000
0.000011 0.000390 0.000000
0.000011 0.000400 0.000000
0.000011 0.000410 0.000000
0.000011 0.000420 0.000000
0.000011 0.000430 0.000000
0.000012 0.000440 0.000000
0.000012 0.000451 0.000000
0.000012 0.000460 0.000000
0.000012 0.000472 0.000000
0.000013 0.000478 0.000000
0.000010 0.000492 0.000000
0.000013 0.000498 0.000000
0.000240 0.000700 0.000000
0.000245 0.000712 0.000000
0.000249 0.000721 0.000000
0.000253 0.000726 0.000000
0.000265 0.000741 0.000000
0.000270 0.000749 0.000000
0.000279 0.000761 0.000000
0.000284 0.000770 0.000000
0.000287 0.000777 0.000000
0.000287 0.000784 0.000000
0.000020 0.000300 0.000000
0.000020 0.000310 0.000000
0.000020 0.000320 0.000000
0.000020 0.000330 0.000000
0.000021 0.000340 0.000000
0.000020 0.000350 0.000000
0.000021 0.000360 0.000000
0.000021 0.000370 0.000000
0.000020 0.000380 0.000000
0.000022 0.000391 0.000000
0.000020 0.000400 0.000000
0.000022 0.000410 0.000000
0.000020 0.000420 0.000000
0.000022 0.000431 0.000000
0.000020 0.000440 0.000000
0.000023 0.000451 0.000000
0.000021 0.000460 0.000000
0.000022 0.000470 0.000000
0.000021 0.000481 0.000000
0.000024 0.000494 0.000000
0.000020 0.000497 0.000000
0.000239 0.000667 0.000000
0.000243 0.000692 0.000000
0.000245 0.000704 0.000000
0.000251 0.000712 0.000000
0.000269 0.000719 0.000000
0.000267 0.000734 0.000000
0.000279 0.000751 0.000000
0.000285 0.000764 0.000000
0.000296 0.000771 0.000000
0.000301 0.000778 0.000000
0.000030 0.000300 0.000000
0.000030 0.000310 0.000000
0.000030 0.000320 0.000000
0.000030 0.000330 0.000000
0.000030 0.000340 0.000000
0.000031 0.000350 0.000000
0.000030 0.000360 0.000000
0.000030 0.000371 0.000000
0.000031 0.000380 0.000000
0.000031 0.000390 0.000000
0.000031 0.000400 0.000000
0.000032 0.000411 0.000000
0.000031 0.000420 0.000000
0.000032 0.000430 0.000000
0.000031 0.000440 0.000000
0.000031 0.000450 0.000000
0.000031 0.000459 0.000000
0.000036 0.000473 0.000000
0.000029 0.000478 0.000000
0.000033 0.000488 0.000000
0.000032 0.000497 0.000000
0.000063 0.000500 0.000000
0.000250 0.000691 0.000000
0.000256 0.000704 0.000000
0.000262 0.000725 0.000000
0.000279 0.000730 0.000000
0.000274 0.000737 0.000000
0.000285 0.000745 0.000000
0.000289 0.000752 0.000000
0.000297 0.000761 0.000000
0.000309 0.000772 0.000000
0.000040 0.000300 0.000000
0.000040 0.000310 0.000000
0.000040 0.000320 0.000000
0.000040 0.000330 0.000000
0.000040 0.000340 0.000000
0.000040 0.000350 0.000000
0.000041 0.000360 0.000000
0.000041 0.000369 0.000000
0.000041 0.000380 0.000000
0.000040 0.000390 0.000000
0.000042 0.000400 0.000000
0.000041 0.000410 0.000000
0.000042 0.000420 0.000000
0.000040 0.000431 0.000000
0.000042 0.000439 0.000000
0.000043 0.000450 0.000000
0.000043 0.000460 0.000000
0.000037 0.000470 0.000000
0.000045 0.000478 0.000000
0.000043 0.000496 0.000000
0.000040 0.000498 0.000000
0.000226 0.000532 0.000000
0.000261 0.000691 0.000000
0.000264 0.000703 0.000000
0.000269 0.000711 0.000000
0.000273 0.000720 0.000000
0.000289 0.000731 0.000000
0.000298 0.000748 0.000000
0.000306 0.000753 0.000000
0.000306 0.000762 0.000000
0.000315 0.000767 0.000000
0.000050 0.000300 0.000000
0.000050 0.000310 0.000000
0.000050 0.000319 0.000000
0.000050 0.000330 0.000000
0.000051 0.000340 0.000000
0.000050 0.000350 0.000000
0.000051 0.000360 0.000000
0.000049 0.000371 0.000000
0.000052 0.000380 0.000000
0.000050 0.000390 0.000000
0.000053 0.000400 0.000000
0.000049 0.000411 0.000000
0.000053 0.000420 0.000000
0.000051 0.000430 0.000000
0.000053 0.000440 0.000000
0.000048 0.000451 0.000000
0.000055 0.000459 0.000000
0.000052 0.000470 0.000000
0.000055 0.000482 0.000000
0.000049 0.000488 0.000000
0.000050 0.000498 0.000000
0.000238 0.000684 0.000000
0.000232 0.000640 0.000000
0.000270 0.000699 0.000000
0.000281 0.000711 0.000000
0.000287 0.000722 0.000000
0.000291 0.000737 0.000000
0.000300 0.000731 0.000000
0.000305 0.000742 0.000000
0.000315 0.000754 0.000000
0.000323 0.000760 0.000000
0.000060 0.000300 0.000000
0.000060 0.000310 0.000000
0.000061 0.000321 0.000000
0.000059 0.000330 0.000000
0.000062 0.000339 0.000000
0.000059 0.000350 0.000000
0.000062 0.000360 0.000000
0.000060 0.000370 0.000000
0.000063 0.000381 0.000000
0.000059 0.000390 0.000000
0.000063 0.000400 0.000000
0.000059 0.000409 0.000000
0.000064 0.000419 0.000000
0.000058 0.000431 0.000000
0.000067 0.000441 0.000000
0.000060 0.000449 0.000000
0.000066 0.000460 0.000000
0.000056 0.000471 0.000000
0.000064 0.000476 0.000000
0.000068 0.000486 0.000000
0.000058 0.000496 0.000000
0.000235 0.000676 0.000000
0.000251 0.000683 0.000000
0.000275 0.000695 0.000000
0.000283 0.000701 0.000000
0.000290 0.000713 0.000000
0.000298 0.000721 0.000000
0.000310 0.000733 0.000000
0.000315 0.000741 0.000000
0.000322 0.000747 0.000000
0.000330 0.000753 0.000000
0.000070 0.000300 0.000000
0.000070 0.000310 0.000000
0.000070 0.000319 0.000000
0.000070 0.000329 0.000000
0.000071 0.000341 0.000000
0.000069 0.000350 0.000000
0.000073 0.000360 0.000000
0.000068 0.000371 0.000000
0.000073 0.000378 0.000000
0.000070 0.000390 0.000000
0.000073 0.000401 0.000000
0.000069 0.000411 0.000000
0.000075 0.000421 0.000000
0.000067 0.000429 0.000000
0.000074 0.000437 0.000000
0.000066 0.000452 0.000000
0.000078 0.000459 0.000000
0.000072 0.000470 0.000000
0.000076 0.000486 0.000000
0.000068 0.000496 0.000000
0.000076 0.000496 0.000000
0.000226 0.000517 0.000000
0.000249 0.000673 0.000000
0.000266 0.000684 0.000000
0.000289 0.000701 0.000000
0.000299 0.000711 0.000000
0.000308 0.000718 0.000000
0.000313 0.000726 0.000000
0.000322 0.000732 0.000000
0.000329 0.000741 0.000000
0.000338 0.000747 0.000000
0.000080 0.000300 0.000000
0.000080 0.000310 0.000000
0.000080 0.000321 0.000000
0.000081 0.000331 0.000000
0.000080 0.000340 0.000000
0.000082 0.000349 0.000000
0.000079 0.000360 0.000000
0.000081 0.000369 0.000000
0.000082 0.000381 0.000000
0.000079 0.000391 0.000000
0.000083 0.000398 0.000000
0.000079 0.000409 0.000000
0.000083 0.000417 0.000000
0.000080 0.000432 0.000000
0.000086 0.000445 0.000000
0.000077 0.000448 0.000000
0.000084 0.000464 0.000000
0.000075 0.000470 0.000000
0.000088 0.000472 0.000000
0.000085 0.000483 0.000000
0.000084 0.000495 0.000000
0.000233 0.000665 0.000000
0.000226 0.000639 0.000000
0.000277 0.000686 0.000000
0.000289 0.000689 0.000000
0.000301 0.000702 0.000000
0.000310 0.000709 0.000000
0.000320 0.000714 0.000000
0.000328 0.000726 0.000000
0.000336 0.000734 0.000000
0.000345 0.000739 0.000000
0.000090 0.000300 0.000000
0.000090 0.000310 0.000000
0.000090 0.000320 0.000000
0.000090 0.000329 0.000000
0.000090 0.000340 0.000000
0.000091 0.000351 0.000000
0.000090 0.000360 0.000000
0.000092 0.000370 0.000000
0.000089 0.000379 0.000000
0.000092 0.000389 0.000000
0.000091 0.000402 0.000000
0.000091 0.000411 0.000000
0.000090 0.000423 0.000000
0.000095 0.000428 0.000000
0.000088 0.000435 0.000000
0.000097 0.000456 0.000000
0.000088 0.000453 0.000000
0.000098 0.000471 0.000000
0.000106 0.000480 0.000000
0.000089 0.000495 0.000000
0.000094 0.000495 0.000000
0.000226 0.000540 0.000000
0.000249 0.000667 0.000000
0.000241 0.000657 0.000000
0.000261 0.000678 0.000000
0.000301 0.000693 0.000000
0.000318 0.000703 0.000000
0.000325 0.000716 0.000000
0.000335 0.000720 0.000000
0.000343 0.000727 0.000000
0.000352 0.000732 0.000000
0.000100 0.000300 0.000000
0.000100 0.000310 0.000000
0.000100 0.000320 0.000000
0.000100 0.000331 0.000000
0.000101 0.000340 0.000000
0.000100 0.000349 0.000000
0.000101 0.000359 0.000000
0.000100 0.000371 0.000000
0.000101 0.000380 0.000000
0.000102 0.000390 0.000000
0.000099 0.000400 0.000000
0.000103 0.000408 0.000000
0.000102 0.000418 0.000000
0.000101 0.000435 0.000000
0.000109 0.000443 0.000000
0.000096 0.000445 0.000000
0.000107 0.000460 0.000000
0.000097 0.000466 0.000000
0.000094 0.000481 0.000000
0.000107 0.000491 0.000000
0.000101 0.000494 0.000000
0.000226 0.000599 0.000000
0.000226 0.000610 0.000000
0.000226 0.000632 0.000000
0.000297 0.000687 0.000000
0.000310 0.000693 0.000000
0.000318 0.000697 0.000000
0.000330 0.000707 0.000000
0.000338 0.000708 0.000000
0.000347 0.000720 0.000000
0.000357 0.000725 0.000000
0.000110 0.000300 0.000000
0.000110 0.000310 0.000000
0.000110 0.000321 0.000000
0.000110 0.000329 0.000000
0.000110 0.000340 0.000000
0.000111 0.000351 0.000000
0.000111 0.000361 0.000000
0.000110 0.000369 0.000000
0.000112 0.000379 0.000000
0.000109 0.000390 0.000000
0.000113 0.000400 0.000000
0.000110 0.000413 0.000000
0.000116 0.000424 0.000000
0.000106 0.000426 0.000000
0.000112 0.000434 0.000000
0.000107 0.000449 0.000000
0.000116 0.000461 0.000000
0.000111 0.000471 0.000000
0.000116 0.000480 0.000000
0.000111 0.000493 0.000000
0.000119 0.000492 0.000000
0.000227 0.000560 0.000000
0.000226 0.000557 0.000000
0.000251 0.000657 0.000000
0.000272 0.000676 0.000000
0.000271 0.000667 0.000000
[...]
POINT_DATA 6231
SCALARS density float 1
LOOKUP_TABLE default
4401.426269
4426.563437
4419.803166
4420.043513
4425.025096
4423.963636
4425.222257
4427.722569
4430.785006
4429.767447
4424.731901
4428.841429
4429.374984
4430.701869
4430.410737
4439.901739
4422.675666
4432.876783
4412.759352
4423.292188
4411.462675
4653.903789
4415.837585
4448.800082
4441.289886
4439.705574
4414.921782
4429.980653
4438.038720
4449.299481
4417.755138
4410.399698
4422.581972
4421.134762
4428.107184
4427.056643
4427.877950
4424.303326
4423.080069
4425.485496
4427.211646
4426.325228
4437.158701
4426.353582
4434.573604
4416.694350
4429.195484
4410.381225
4441.785725
4462.329765
4460.727376
4414.638277
4407.723263
4387.042783
4419.640648
4460.826427
4414.209265
4400.817799
4418.985027
4410.316892
4426.552591
4462.222921
4415.194368
4421.309252
4426.420435
4425.835848
4416.075770
4424.251771
4427.663666
4438.702479
4420.464408
4432.313322
4429.548104
4427.486753
4413.960127
4443.284858
4417.171102
4472.824550
4399.660823
4452.954491
4352.596485
4450.889322
4419.432098
4422.608636
4407.195475
4393.295509
4462.178243
4444.288041
4449.745021
4456.189010
4419.452548
4442.975510
4397.761211
4415.950590
4425.301839
4426.841946
4417.629506
4436.330180
4435.305996
4417.297416
4427.513103
4418.213004
4441.275853
4408.713908
4443.951692
4426.164458
4443.191299
4400.255646
4432.615259
4394.801667
4456.757994
4371.410672
4553.009552
4371.403062
4429.787734
4490.511531
4505.467451
4348.016271
4371.652392
4458.806913
4422.411085
4431.434796
4474.040114
4445.857675
4426.738270
4431.718713
4426.605639
4432.817854
4427.139128
4419.364624
4430.160877
4439.832596
4420.383921
4438.381052
4407.918335
4450.994062
4395.240873
4441.877822
4420.056414
4450.243522
4383.673883
4507.129478
4312.077972
4419.183574
4385.192269
4536.443696
4348.989550
4379.034441
4361.758200
4502.006251
4455.679938
4397.668090
4444.776772
4360.146552
4431.340889
4435.305412
4424.694759
4418.800938
4437.531785
4416.516805
4441.388085
4422.285131
4427.803779
4419.973431
4439.217548
4427.310254
4438.004759
4408.819255
4468.699369
4360.216339
4480.649470
4355.798706
4482.257599
4366.046621
4539.285150
4380.812641
4422.442454
4408.803574
4515.503143
4401.459755
4393.507088
4444.830014
4406.859345
4400.887988
4449.109793
4411.854858
4421.134055
4430.936844
4432.210517
4433.482864
4423.782177
4442.737240
4415.924575
4436.880973
4427.275380
4428.455233
4423.667351
4435.341665
4427.791365
4425.931117
4423.593561
4469.357185
4401.463901
4514.561432
4362.618298
4486.606078
4429.511061
4411.624780
4402.889142
4444.640572
4430.015676
4452.422832
4436.979470
4461.955319
4433.291701
4410.287449
4438.623382
4422.448362
4436.513720
4424.334069
4415.839649
4442.294730
4421.261315
4438.591547
4434.024203
4411.679851
4430.312885
4419.870175
4422.117710
4426.465782
4430.833883
4455.220057
4461.347928
4443.004486
4462.304896
4446.184364
4412.558822
4384.532563
4686.369391
4458.374314
4469.122873
4447.366574
4463.535311
4421.332485
4418.053391
4428.164880
4415.371682
4418.256384
4426.350076
4423.191829
4420.320086
4439.212031
4432.994367
4411.075402
4442.240370
4417.188023
4442.387555
4437.455767
4404.850589
4429.757447
4423.261125
4416.978582
4470.090848
4380.640395
4456.626202
4447.185759
4361.537335
4471.858967
4410.730812
4423.335586
4485.913269
4386.825180
4450.148786
4399.039844
4427.786504
4448.262815
4439.831714
4431.874976
4427.432099
4427.825960
4437.093389
4441.093690
4423.494015
4413.064302
4441.139753
4419.927877
4425.679016
4445.465666
4401.296780
4446.831799
4414.664437
4416.423420
4461.239262
4414.898291
4382.122078
4439.973979
4433.776153
4428.952930
4424.653866
4411.106060
4555.373195
4442.460162
4421.146486
4453.420654
4441.622371
4451.493782
4465.534168
4397.118056
4423.239599
4422.255614
4435.007532
4427.003892
4411.420468
4432.411405
4444.319279
4432.316699
4418.985908
4424.862948
4422.600801
4434.967127
4444.386626
4418.650349
4422.801673
4395.982161
4448.823944
4435.058864
4415.588490
4469.472865
4428.605458
4433.715501
4416.939885
4427.885869
4577.121300
4388.486779
4440.551740
4455.398135
4457.285634
4427.426489
4455.819804
4431.940951
4406.345722
4427.693213
4424.406373
4443.928951
4438.744249
4406.091707
4417.062017
4440.629638
4440.789831
4413.713517
4434.400944
4398.978558
4453.927201
4400.159566
4439.654355
4426.175453
4441.682777
4469.194667
4391.713533
4462.774959
4408.907301
4418.837382
4378.871816
4658.283739
4426.785128
4439.199819
4408.020522
4423.185164
4461.933794
4457.580078
4415.090805
4419.651176
4435.305299
4426.264916
4427.886063
4407.262861
4439.014705
4454.743982
4399.592465
4422.351975
4429.109465
4436.268488
4422.149232
4444.763535
4425.582674
4442.208292
4403.660213
4373.483761
4424.958953
4394.658402
4413.980821
4441.771734
4400.822938
4465.948940
4425.523416
4418.925321
4436.257202
4432.485148
4369.845744
4445.897703
4381.059435
4430.285703
4406.726641
4425.408816
4428.363811
4421.847609
4443.546537
4428.975385
4402.612095
4443.617184
4435.249042
4426.058630
4410.008900
4416.064098
4407.097579
4425.485273
4436.141744
4398.634802
4454.986642
4432.214922
4449.391625
4483.990506
4425.491358
4452.532463
4413.460828
4418.054433
4349.751079
4447.719640
4424.190363
4412.325715
4461.716007
4438.279196
4463.227302
4408.785127
4419.228580
4445.975704
4440.210026
4405.498954
4419.547170
4432.525015
4445.891472
4395.560446
4436.187592
4424.801996
4430.621045
4440.690044
4416.503317
4409.192394
4450.588526
4388.312946
4395.559529
4493.722816
4571.106567
4396.430108
4378.058964
4419.645935
4448.884818
4443.309470
4598.802806
4373.189884
4454.838736
4439.602534
4453.805816
4425.043030
4436.704334
4434.462354
4425.697103
4411.543735
4444.397457
4441.058966
4405.120948
4411.986849
4445.093315
4437.241700
4394.371509
4431.973746
4398.377127
4444.125191
4412.388753
4428.053448
4413.875149
4485.621538
4364.348344
4337.292524
4516.766720
4397.357521
4440.580420
4468.699525
4400.804354
4427.487092
4353.102923
4444.317595
4430.816421
4415.286947
4412.796895
4414.911055
4428.365771
4421.408742
4438.305915
4447.423014
4398.311667
4442.836690
4435.643221
4406.615478
4408.241190
4443.503220
4439.175931
4423.734630
4433.208432
4388.149090
4434.780040
4430.399282
4404.942936
4500.256829
4486.377647
4426.479473
4409.358201
4409.313869
4459.993952
4438.337819
4470.564086
4452.621106
4468.790032
4447.860819
4413.153488
4443.017545
4415.919896
4427.813095
4425.058799
4427.391058
4396.648122
4444.567975
4449.897189
4393.542902
4439.385366
4428.156181
4422.237930
4390.991519
4423.901593
4422.510901
4455.479101
4402.907081
4426.280001
4404.831507
4467.532730
4322.576470
4368.742561
4434.001426
4416.868912
4467.508308
4502.154799
4431.130063
4465.409336
4495.602191
4373.032032
4435.646179
4427.071646
4418.974940
4421.960094
4424.912137
4425.320675
4441.788957
4439.382363
4392.093311
4445.172801
4453.437724
4387.361639
4429.388707
4428.092710
4444.820968
4386.863050
4436.382858
4384.839979
4470.339939
4338.939610
4473.367763
4384.316234
4454.261939
4409.026495
4432.637149
4450.087348
4484.873285
4506.938594
4419.729804
4434.858038
4432.709453
4423.099919
4431.195660
4415.305613
4420.184423
4440.594595
4427.469055
4417.518550
4400.838606
4446.479283
4445.589937
4384.260139
4454.481898
4447.080417
4371.875470
4436.956490
4407.735019
4442.616170
4419.009208
4442.854801
4432.379004
4470.348140
4435.743667
4571.192375
4404.293630
4474.025505
4502.304886
4446.538149
4423.610024
4392.703255
4458.281267
4427.463971
4455.543036
4435.216890
4406.930044
4431.445250
4427.772573
4408.449862
4438.041364
4443.521158
4420.924452
4394.211796
4446.081213
4441.197841
4391.533397
4462.454413
4425.069402
4403.549103
4422.108739
4409.585116
4405.597419
4402.762020
4442.635913
4359.043784
4407.796897
4417.602112
4436.234081
4465.366009
4489.144029
4438.210841
4426.324595
4452.355645
4452.163159
4452.434894
4401.069423
4413.512531
4423.762969
4422.476245
4441.279335
4437.167523
4396.340393
4423.426127
4441.221691
4437.724773
4380.051038
4438.386628
4444.183824
4381.903658
4436.009843
4425.356207
4404.955577
4464.040476
4412.011210
4447.598909
4445.284125
4467.320455
4442.814611
4439.644164
4512.957122
4414.878001
4434.934442
4446.546275
4433.122650
4444.421585
4415.752460
4413.113341
4429.686476
4426.622935
4421.079318
4427.651954
4405.123679
4449.905002
4444.713144
4396.873223
4406.124294
4444.487794
4448.797393
4369.944938
4460.817287
4434.420301
4400.313644
4437.782325
4395.385440
4385.123136
4431.413702
4417.098592
4427.546672
4376.441526
4512.037706
4487.506131
4457.349276
4462.845989
4463.540286
4471.399552
4425.235758
4474.334728
4408.021191
4443.194620
4420.594264
4423.598408
4424.486561
4434.132320
4431.811114
4393.666674
4446.566117
4447.140036
4396.030071
4403.215162
4446.387416
4448.400986
4358.621626
4467.235535
4392.146049
4437.640654
4421.823979
4414.839120
4424.409705
4453.634815
4501.213250
4471.668578
4451.627864
4487.976990
4460.514689
4450.713153
4462.959058
4424.231444
4459.363929
4405.800293
4437.009014
4416.332140
4441.756908
4430.463492
4418.633189
4407.339392
4443.491453
4437.684366
4389.071167
4434.864396
4440.283232
4412.073558
4385.632144
4443.279101
4445.711552
4373.112228
4452.684045
4436.971454
4380.801137
4464.393689
4397.616651
4413.347650
4419.606322
4451.812071
4462.536429
4441.914818
4456.263082
4430.033139
4436.768925
4437.462924
4433.034938
4426.084427
4432.225666
4430.035299
4403.160513
4443.267242
4439.728444
4415.467931
4396.488002
4449.914415
4448.839815
4386.131137
4413.542400
4437.449254
4426.418419
4380.182681
4447.369336
4380.491626
4451.093271
4431.483363
4426.191501
4453.630690
4441.998674
4455.927847
4469.826352
4453.286198
4444.677461
4429.295334
4464.545233
4444.948672
4454.840515
4432.789126
4412.850930
4428.138114
4425.221024
4442.392492
4441.470550
4396.152532
4436.289121
4442.789991
4415.528691
4390.760831
4444.329902
4451.951196
4389.206171
4399.804201
4433.794995
4446.619936
4377.864741
4435.129300
4421.640357
4408.412770
4452.481410
4444.478199
4432.506136
4439.574721
4445.344068
4432.157068
4460.406939
4408.393922
4458.387015
4459.840672
4407.932130
4422.723995
4423.450000
4422.857148
4428.733885
4404.354874
4449.199718
4446.336712
4397.730058
4421.123291
4442.133744
4431.404711
4388.458131
4432.885419
4447.877447
4409.911939
4405.892518
4442.385980
4419.982850
4424.710267
4449.831619
4415.037115
4413.815474
4460.821455
4440.416617
4450.874905
4444.065327
4441.416719
4415.594274
4437.617744
4443.608299
4396.252861
4391.509252
4424.559612
4432.285570
4428.209119
4434.728639
4440.769157
4391.501543
4449.285783
4445.007470
4401.138951
4403.844087
4447.332141
4440.715258
4382.245089
4414.638417
4428.592712
4453.344289
4384.486810
4438.579366
4430.771630
4453.677926
4441.040126
4430.651449
4462.940914
4404.757160
4457.052747
4460.119406
4445.934495
4403.830621
4422.851817
4467.586223
4450.828405
4423.468738
4431.614475
4426.402437
4422.232792
4411.570749
4440.639408
4447.907097
4386.638603
4448.733042
4446.215347
4400.459302
4406.800014
4443.802787
4450.588472
4407.500515
4419.241396
4438.600093
4410.874504
4428.847260
4422.443278
4437.672538
4426.237974
4429.540535
4418.500156
4467.524273
4454.837752
4469.375789
4409.860121
4465.653718
4441.117459
4522.765729
4429.047356
4430.684309
4422.843146
4438.074261
4444.894312
4419.346574
4395.222771
4446.904516
4437.174238
4395.490232
4442.003191
4430.738987
4415.333277
4382.456349
4428.854330
4432.025048
4415.694440
4423.151419
4453.457538
4423.392376
4421.171381
4430.397063
4442.197098
4430.496351
4422.144087
4428.106087
4422.583375
4462.998523
4456.418942
4453.125850
4383.982862
4433.072314
4430.703063
4435.219382
4426.658107
4405.607224
4438.270270
4440.810342
4431.560598
4404.132828
4433.391180
4448.149265
4397.945624
4420.081489
4450.429833
4439.358593
4398.615711
4428.201665
4411.782864
4419.402764
4438.294909
4446.332029
4426.272754
4437.553970
4445.936613
4459.005156
4420.604491
4462.219990
4474.860521
4393.208408
4456.290938
4410.014976
4432.378808
4425.591696
4424.444938
4434.634578
4448.923603
4434.198580
4412.856188
4403.641402
4442.245512
4435.446491
4397.144590
4447.502117
4435.914229
4395.107127
4393.998923
4429.644120
4445.278923
4407.842711
4447.022239
4413.779421
4427.455339
4433.726062
4420.176942
4450.756563
4421.592693
4449.253095
4411.429856
4464.339837
4488.169547
4451.525064
4474.247021
4432.434644
4422.607816
4452.078674
4404.327323
4427.685482
4403.212665
4447.866010
4454.052764
4411.915574
4406.973223
4439.680643
4432.218745
4405.744641
4436.409067
4443.968218
4428.279137
4405.678206
4420.630645
4400.070407
4432.756545
4423.134515
4413.207603
4445.680666
4451.070369
4443.068366
4448.877994
4447.647752
4445.855972
4452.231600
4454.107415
4465.195767
4435.622537
4424.323111
4442.055994
4418.783784
4434.533738
4448.062047
4413.748648
4393.167668
4436.009573
4441.396978
4419.481816
4409.631131
4431.466803
4435.736732
4400.916383
4397.896140
4436.519731
4447.499092
4393.864692
4460.172539
4442.062008
4430.706835
4428.585418
4416.232734
4449.419655
4452.396573
4436.298113
4443.018377
4471.718463
4452.672712
4466.643747
4443.099486
4426.230413
4419.908310
4443.701129
4416.994171
4407.140094
4451.158022
4443.630853
4429.987321
4413.068655
4418.973251
4447.995502
4429.343838
4412.156020
4448.667331
4436.130209
4425.749291
4402.951413
4457.488173
4368.568593
4455.442089
4434.901054
4445.235636
4443.872881
4434.130674
4442.456278
4462.361309
4456.131054
4467.121824
4440.310785
4462.096358
4418.723801
4427.079540
4442.901483
4422.078417
4435.366402
4443.175068
4433.337149
4400.983213
4429.945012
4417.071814
4449.805494
4414.068724
4419.657460
4442.170828
4427.258312
4393.014479
4442.857304
4416.624381
4445.293227
4404.342122
4437.814984
4438.927758
4405.156683
4408.272537
4459.268469
4441.517667
4461.241630
4447.566977
4460.468057
4461.349871
4461.153877
4418.880695
4432.983188
4433.982689
4409.880806
4443.448681
4392.614444
4423.493558
4445.090509
4448.455398
4414.749926
4431.042296
4407.250810
4459.687671
4399.574650
4448.220647
4440.081688
4435.684559
4414.365765
4432.479104
4439.376280
4449.566003
4406.660258
4460.310113
4448.229954
4472.999991
4428.160782
4444.302382
4460.829945
4454.679490
4453.707486
4459.979035
4433.609434
4434.783003
4402.553215
4457.260280
4438.684357
4444.663152
4440.750591
4394.059062
4418.979049
4427.687348
4435.301702
4402.355890
4446.013100
4390.436779
4442.492638
4409.811636
4413.161011
4448.653893
4449.283187
4438.932098
4437.852095
4435.947617
4450.374337
4422.348267
4454.090664
4477.267534
4468.541893
4437.234945
4465.340117
4452.898563
4458.053160
4429.489727
4419.922048
4442.739635
4432.207695
4400.035546
4448.102517
4414.202975
4446.917506
4434.535349
4415.272495
4429.945444
4446.414519
4423.019548
4443.886592
4435.230142
4394.836388
4450.027258
4391.023645
4447.122764
4393.187090
4461.466470
4418.752219
4442.122253
4453.494885
4434.904110
4463.530373
4443.246452
4460.477181
4443.273070
4456.903416
4455.745154
4425.758893
4426.916066
4427.071810
4408.658688
4459.578382
4426.211454
4430.092167
4452.620568
4386.911931
4447.781434
4409.254147
4423.902861
4418.889438
4419.923163
4434.250092
4436.844757
4458.566706
4392.381503
4466.561583
4419.899807
4440.311656
4422.452652
4453.606805
4437.864061
4433.565909
4440.298181
4468.956859
4454.868487
4458.185063
4458.353741
4452.762311
4426.094411
4438.714317
4435.580028
4425.045524
4452.146480
4404.835679
4447.846922
4406.861464
4450.187393
4441.699099
4401.123603
4440.539644
4418.909097
4451.609991
4407.709829
4443.027862
4397.386898
4454.556268
4448.466857
4412.564827
4463.550764
4427.149707
4457.904532
4434.926686
4451.521235
4456.868886
4438.905150
4454.621865
4448.593680
4455.635405
4452.838537
4439.629203
4436.973246
4412.965071
4442.632805
4389.167609
4446.137699
4443.248161
4421.789731
4462.766719
4389.860231
4444.160642
4427.127671
4416.586438
4441.852356
4406.858593
4435.236586
4430.220925
4452.825955
4407.284519
4460.651029
4423.493955
4404.857357
4451.520227
4429.175498
4466.713743
4418.515775
4456.021781
4449.337816
4462.452116
4446.780668
4454.980829
4435.465829
4429.240135
4425.560949
4455.674183
4424.324372
4447.951692
4405.928297
4461.137472
4397.412010
4460.156749
4444.804595
4392.639282
4451.496432
4405.467049
4455.242699
4427.701174
4426.544862
4414.506938
4445.008266
4449.618856
4430.358129
4462.786154
4426.976693
4449.999473
4455.490916
4455.001704
4470.185498
4420.574866
4455.004312
4439.533561
4454.284155
4425.160329
4426.530837
4441.022917
4399.510558
4444.158839
4415.929328
4423.813670
4448.168667
4437.005319
4460.917642
4397.959191
4446.019225
4449.719518
4411.874946
4448.398923
4425.323314
4455.458097
4432.477678
4447.026612
4420.234176
4450.233529
4447.355389
4388.457398
4458.376120
4431.833509
4441.530891
4451.308887
4459.936715
4455.800761
4449.910034
4454.007763
4431.595464
4435.873957
4436.880636
4425.943820
4454.416923
4417.007201
4457.937926
4407.510557
4438.690010
4412.920520
4462.942208
4450.609457
4391.850669
4454.256144
4405.145391
4446.015420
4422.008363
4436.442388
4435.149511
4443.377489
4451.216523
4414.866715
4467.932636
4410.890375
4456.316701
4447.923746
4451.214776
4452.764733
4432.428146
4452.746725
4449.904315
4441.459583
4428.724934
4417.776646
4427.954341
4412.814407
4434.365901
4446.200847
4388.701687
4446.721528
4426.345470
4451.397932
4397.080318
4471.063200
4436.364185
4404.840041
4445.805379
4428.305306
4447.989104
4427.593443
4422.635316
4440.904389
4451.958935
4470.690346
4397.652027
4450.228016
4430.214747
4460.823513
4446.060329
4445.848220
4457.280313
4446.621677
4432.978544
4425.971953
4451.150466
4439.526370
4427.810199
4447.968167
4431.604763
4464.966495
4434.185124
4415.358815
4431.854710
4428.712983
4464.842246
4389.268398
4441.524762
4432.695526
4430.076273
4426.902546
4429.004859
4458.154003
4407.181842
4438.385405
4422.135333
4466.177556
4418.838967
4428.788527
4439.611017
4440.207210
4461.955902
4450.209676
4451.079725
4431.195578
4431.937404
4429.041542
4404.731977
4447.531206
4421.543562
4433.361380
4434.080174
4412.347625
4441.680373
4422.722812
4431.056662
4420.431558
4474.079080
4439.425412
4414.067565
4435.770106
4437.910234
4431.516873
4436.787791
4415.427801
4450.763926
4430.238802
4455.393849
4416.939327
4452.224201
4433.734605
4429.258435
4440.027788
4439.857079
4450.806510
4433.824205
4432.759707
4424.116695
4443.414012
4457.080704
4416.954320
4446.513172
4416.688870
4447.776657
4460.815055
4418.302726
4430.098577
4441.695750
4443.466080
4403.295951
4456.354767
4450.849812
4412.976435
4417.200330
4442.208966
4452.848286
4427.239195
4434.223848
4439.363731
4461.139057
4446.297727
4438.608597
4443.915162
4445.967343
4456.714226
4450.930147
4431.693313
4438.907540
4433.745506
4429.568886
4397.457775
4459.398566
4436.478390
4424.330676
4444.128013
4428.795273
4451.776084
4449.215432
4409.189054
4423.924737
4450.595540
4443.766928
4410.953213
4450.263588
4441.987863
4429.303580
4449.133536
4408.225951
4438.381721
4451.943117
4433.908416
4430.671411
4454.469518
4434.142428
4443.110221
4441.516326
4447.628173
4437.156844
4439.148233
4412.969631
4455.202197
4441.767088
4431.313816
4421.130432
4446.145883
4424.428000
4453.549376
4437.298159
4421.474336
4440.347336
4417.637820
4422.213917
4412.497421
4459.822543
4435.953557
4424.490146
4417.709186
4443.245388
4458.277366
4444.673824
4420.204521
4437.482561
4454.783017
4447.954718
4436.453462
4449.688402
4449.317033
4448.668755
4438.272786
4432.961509
4440.165541
4432.228558
4408.673617
4440.179706
4440.641714
4442.284650
4426.268090
4436.338370
4427.855651
4449.830259
4465.608263
4422.085930
4436.275070
4423.358101
4457.439783
4409.439305
4451.191037
4437.688753
4454.971437
4430.820431
4439.788861
4450.445625
4424.765868
4429.210104
4431.884399
4445.596970
4450.693810
4438.855879
4450.506529
4437.701287
4421.740147
4438.896948
4420.033497
4453.568280
4449.577984
4418.850907
4433.677287
4445.292032
4438.133924
4434.280211
4440.948493
4410.983465
4466.810825
4406.675547
4440.512806
4433.439744
4456.844856