# vtk DataFile Version 2.0
mfree iwf
ASCII

DATASET UNSTRUCTURED_GRID
POINTS 6231 float
0.000000 0.000300 0.000000
0.000000 0.000310 0.000000
0.000000 0.000320 0.000000
0.000000 0.000330 0.000000
0.000000 0.000340 0.000000
0.000000 0.000350 0.000000
0.000001 0.000360 0.000000
0.000001 0.000370 0.000000
0.000001 0.000380 0.000000
0.000001 0.000391 0.000000
0.000001 0.000401 0.000000
0.000001 0.000411 0.000000
0.000001 0.000421 0.000000
0.000001 0.000431 0.000000
0.000001 0.000441 0.000000
0.000001 0.000451 0.000000
0.000002 0.000461 0.000000
0.000002 0.000471 0.000000
0.000002 0.000480 0.000000
0.000002 0.000491 0.000000
0.000003 0.000500 0.000000
0.000006 0.000510 0.000000
0.000006 0.000520 0.000000
0.000006 0.000530 0.000000
0.000006 0.000540 0.000000
0.000006 0.000550 0.000000
0.000006 0.000560 0.000000
0.000006 0.000571 0.000000
0.000006 0.000581 0.000000
0.000006 0.000591 0.000000
0.000006 0.000603 0.000000
0.000010 0.000300 0.000000
0.000010 0.000310 0.000000
0.000010 0.000320 0.000000
0.000010 0.000330 0.000000
0.000010 0.000340 0.000000
0.000010 0.000350 0.000000
0.000011 0.000360 0.000000
0.000011 0.000370 0.000000
0.000011 0.000380 0.000000
0.000011 0.000390 0.000000
0.000011 0.000400 0.000000
0.000011 0.000410 0.000000
0.000011 0.000420 0.000000
0.000011 0.000430 0.000000
0.000011 0.000440 0.000000
0.000011 0.000450 0.000000
0.000012 0.000460 0.000000
0.000012 0.000471 0.000000
0.000012 0.000480 0.000000
0.000012 0.000491 0.000000
0.000012 0.000499 0.000000
0.000016 0.000510 0.000000
0.000016 0.000522 0.000000
0.000016 0.000531 0.000000
0.000016 0.000542 0.000000
0.000016 0.000552 0.000000
0.000016 0.000562 0.000000
0.000016 0.000572 0.000000
0.000016 0.000583 0.000000
0.000015 0.000593 0.000000
0.000015 0.000603 0.000000
0.000020 0.000300 0.000000
0.000020 0.000310 0.000000
0.000020 0.000320 0.000000
0.000020 0.000330 0.000000
0.000020 0.000340 0.000000
0.000020 0.000350 0.000000
0.000021 0.000360 0.000000
0.000021 0.000370 0.000000
0.000021 0.000380 0.000000
0.000021 0.000390 0.000000
0.000021 0.000400 0.000000
0.000021 0.000410 0.000000
0.000021 0.000420 0.000000
0.000021 0.000430 0.000000
0.000021 0.000440 0.000000
0.000021 0.000450 0.000000
0.000022 0.000460 0.000000
0.000022 0.000470 0.000000
0.000022 0.000480 0.000000
0.000022 0.000490 0.000000
0.000023 0.000500 0.000000
0.000024 0.000511 0.000000
0.000025 0.000521 0.000000
0.000026 0.000531 0.000000
0.000026 0.000541 0.000000
0.000026 0.000551 0.000000
0.000026 0.000562 0.000000
0.000026 0.000572 0.000000
0.000026 0.000582 0.000000
0.000025 0.000592 0.000000
0.000025 0.000603 0.000000
0.000030 0.000300 0.000000
0.000030 0.000310 0.000000
0.000030 0.000320 0.000000
0.000030 0.000330 0.000000
0.000030 0.000340 0.000000
0.000030 0.000350 0.000000
0.000031 0.000360 0.000000
0.000031 0.000370 0.000000
0.000031 0.000380 0.000000
0.000031 0.000390 0.000000
0.000031 0.000400 0.000000
0.000031 0.000410 0.000000
0.000031 0.000420 0.000000
0.000031 0.000430 0.000000
0.000031 0.000440 0.000000
0.000031 0.000450 0.000000
0.000032 0.000460 0.000000
0.000032 0.000470 0.000000
0.000032 0.000480 0.000000
0.000032 0.000490 0.000000
0.000033 0.000500 0.000000
0.000034 0.000510 0.000000
0.000035 0.000521 0.000000
0.000035 0.000532 0.000000
0.000035 0.000542 0.000000
0.000035 0.000552 0.000000
0.000035 0.000562 0.000000
0.000035 0.000573 0.000000
0.000035 0.000583 0.000000
0.000035 0.000593 0.000000
0.000035 0.000603 0.000000
0.000040 0.000300 0.000000
0.000040 0.000310 0.000000
0.000040 0.000320 0.000000
0.000040 0.000330 0.000000
0.000040 0.000340 0.000000
0.000040 0.000350 0.000000
0.000041 0.000360 0.000000
0.000041 0.000370 0.000000
0.000041 0.000380 0.000000
0.000041 0.000390 0.000000
0.000041 0.000400 0.000000
0.000041 0.000410 0.000000
0.000041 0.000420 0.000000
0.000041 0.000430 0.000000
0.000041 0.000440 0.000000
0.000041 0.000450 0.000000
0.000042 0.000460 0.000000
0.000042 0.000470 0.000000
0.000042 0.000480 0.000000
0.000042 0.000490 0.000000
0.000043 0.000500 0.000000
0.000043 0.000510 0.000000
0.000044 0.000521 0.000000
0.000045 0.000531 0.000000
0.000045 0.000542 0.000000
0.000045 0.000552 0.000000
0.000045 0.000562 0.000000
0.000045 0.000572 0.000000
0.000045 0.000582 0.000000
0.000045 0.000593 0.000000
0.000045 0.000603 0.000000
0.000050 0.000300 0.000000
0.000050 0.000310 0.000000
0.000050 0.000320 0.000000
0.000050 0.000330 0.000000
0.000050 0.000340 0.000000
0.000050 0.000350 0.000000
0.000050 0.000360 0.000000
0.000051 0.000370 0.000000
0.000051 0.000380 0.000000
0.000051 0.000390 0.000000
0.000051 0.000400 0.000000
0.000051 0.000410 0.000000
0.000051 0.000420 0.000000
0.000051 0.000430 0.000000
0.000051 0.000440 0.000000
0.000051 0.000450 0.000000
0.000052 0.000460 0.000000
0.000052 0.000470 0.000000
0.000052 0.000480 0.000000
0.000052 0.000490 0.000000
0.000052 0.000500 0.000000
0.000053 0.000510 0.000000
0.000054 0.000520 0.000000
0.000054 0.000531 0.000000
0.000055 0.000542 0.000000
0.000055 0.000552 0.000000
0.000055 0.000562 0.000000
0.000055 0.000573 0.000000
0.000055 0.000583 0.000000
0.000055 0.000593 0.000000
0.000055 0.000603 0.000000
0.000060 0.000300 0.000000
0.000060 0.000310 0.000000
0.000060 0.000320 0.000000
0.000060 0.000330 0.000000
0.000060 0.000340 0.000000
0.000060 0.000350 0.000000
0.000060 0.000360 0.000000
0.000061 0.000370 0.000000
0.000061 0.000380 0.000000
0.000061 0.000390 0.000000
0.000061 0.000400 0.000000
0.000061 0.000410 0.000000
0.000061 0.000420 0.000000
0.000061 0.000430 0.000000
0.000061 0.000440 0.000000
0.000061 0.000450 0.000000
0.000062 0.000460 0.000000
0.000062 0.000470 0.000000
0.000062 0.000480 0.000000
0.000062 0.000490 0.000000
0.000062 0.000500 0.000000
0.000063 0.000510 0.000000
0.000063 0.000521 0.000000
0.000064 0.000531 0.000000
0.000064 0.000541 0.000000
0.000064 0.000552 0.000000
0.000065 0.000562 0.000000
0.000065 0.000572 0.000000
0.000065 0.000582 0.000000
0.000065 0.000593 0.000000
0.000065 0.000603 0.000000
0.000070 0.000300 0.000000
0.000070 0.000310 0.000000
0.000070 0.000320 0.000000
0.000070 0.000330 0.000000
0.000070 0.000340 0.000000
0.000070 0.000350 0.000000
0.000070 0.000360 0.000000
0.000071 0.000370 0.000000
0.000071 0.000380 0.000000
0.000071 0.000390 0.000000
0.000071 0.000400 0.000000
0.000071 0.000410 0.000000
0.000071 0.000420 0.000000
0.000071 0.000430 0.000000
0.000071 0.000440 0.000000
0.000071 0.000450 0.000000
0.000072 0.000460 0.000000
0.000072 0.000470 0.000000
0.000072 0.000480 0.000000
0.000072 0.000490 0.000000
0.000072 0.000500 0.000000
0.000072 0.000510 0.000000
0.000073 0.000520 0.000000
0.000073 0.000531 0.000000
0.000074 0.000541 0.000000
0.000074 0.000552 0.000000
0.000074 0.000562 0.000000
0.000074 0.000572 0.000000
0.000075 0.000582 0.000000
0.000075 0.000592 0.000000
0.000075 0.000603 0.000000
0.000080 0.000300 0.000000
0.000080 0.000310 0.000000
0.000080 0.000320 0.000000
0.000080 0.000330 0.000000
0.000080 0.000340 0.000000
0.000080 0.000350 0.000000
0.000080 0.000360 0.000000
0.000081 0.000370 0.000000
0.000081 0.000380 0.000000
0.000081 0.000390 0.000000
0.000081 0.000400 0.000000
0.000081 0.000410 0.000000
0.000081 0.000420 0.000000
0.000081 0.000430 0.000000
0.000081 0.000440 0.000000
0.000081 0.000450 0.000000
0.000082 0.000460 0.000000
0.000082 0.000470 0.000000
0.000082 0.000480 0.000000
0.000082 0.000490 0.000000
0.000082 0.000500 0.000000
0.000082 0.000510 0.000000
0.000083 0.000520 0.000000
0.000083 0.000531 0.000000
0.000083 0.000541 0.000000
0.000084 0.000551 0.000000
0.000084 0.000562 0.000000
0.000084 0.000572 0.000000
0.000084 0.000582 0.000000
0.000085 0.000592 0.000000
0.000085 0.000602 0.000000
0.000090 0.000300 0.000000
0.000090 0.000310 0.000000
0.000090 0.000320 0.000000
0.000090 0.000330 0.000000
0.000090 0.000340 0.000000
0.000090 0.000350 0.000000
0.000090 0.000360 0.000000
0.000091 0.000370 0.000000
0.000091 0.000380 0.000000
0.000091 0.000390 0.000000
0.000091 0.000400 0.000000
0.000091 0.000410 0.000000
0.000091 0.000420 0.000000
0.000091 0.000430 0.000000
0.000091 0.000440 0.000000
0.000091 0.000450 0.000000
0.000092 0.000460 0.000000
0.000092 0.000470 0.000000
0.000092 0.000480 0.000000
0.000092 0.000490 0.000000
0.000092 0.000500 0.000000
0.000092 0.000510 0.000000
0.000092 0.000520 0.000000
0.000093 0.000531 0.000000
0.000093 0.000541 0.000000
0.000093 0.000551 0.000000
0.000093 0.000561 0.000000
0.000094 0.000572 0.000000
0.000094 0.000582 0.000000
0.000094 0.000592 0.000000
0.000095 0.000602 0.000000
0.000100 0.000300 0.000000
0.000100 0.000310 0.000000
0.000100 0.000320 0.000000
0.000100 0.000330 0.000000
0.000100 0.000340 0.000000
0.000100 0.000350 0.000000
0.000100 0.000360 0.000000
0.000101 0.000370 0.000000
0.000101 0.000380 0.000000
0.000101 0.000390 0.000000
0.000101 0.000400 0.000000
0.000101 0.000410 0.000000
0.000101 0.000420 0.000000
0.000101 0.000430 0.000000
0.000101 0.000440 0.000000
0.000101 0.000450 0.000000
0.000102 0.000460 0.000000
0.000102 0.000470 0.000000
0.000102 0.000480 0.000000
0.000102 0.000490 0.000000
0.000102 0.000500 0.000000
0.000102 0.000510 0.000000
0.000102 0.000520 0.000000
0.000103 0.000530 0.000000
0.000103 0.000541 0.000000
0.000103 0.000551 0.000000
0.000103 0.000561 0.000000
0.000103 0.000571 0.000000
0.000104 0.000582 0.000000
0.000104 0.000592 0.000000
0.000104 0.000602 0.000000
0.000110 0.000300 0.000000
0.000110 0.000310 0.000000
0.000110 0.000320 0.000000
0.000110 0.000330 0.000000
0.000110 0.000340 0.000000
0.000110 0.000350 0.000000
0.000110 0.000360 0.000000
0.000111 0.000370 0.000000
0.000111 0.000380 0.000000
0.000111 0.000390 0.000000
0.000111 0.000400 0.000000
0.000111 0.000410 0.000000
0.000111 0.000420 0.000000
0.000111 0.000430 0.000000
0.000111 0.000440 0.000000
0.000111 0.000450 0.000000
0.000111 0.000460 0.000000
0.000112 0.000470 0.000000
0.000112 0.000480 0.000000
0.000112 0.000490 0.000000
0.000112 0.000500 0.000000
0.000112 0.000510 0.000000
0.000112 0.000520 0.000000
0.000112 0.000530 0.000000
0.000113 0.000540 0.000000
0.000113 0.000551 0.000000
[...]
POINT_DATA 6231
SCALARS density float 1
LOOKUP_TABLE default
4393.195627
4423.197054
4422.154366
4422.794104
4424.295568
4424.360873
4425.274989
4425.600731
4426.208741
4426.706550
4427.171212
4427.855075
4428.130548
4429.260397
4429.298524
4431.232677
4430.670412
4435.143365
4427.697375
4446.465209
4401.857063
4634.111805
4488.674070
4542.401829
4512.597558
4515.284018
4512.831972
4507.617066
4503.643833
4514.871635
4465.576695
4401.003000
4418.876126
4420.253441
4419.948665
4423.094995
4422.629448
4424.263068
4424.557122
4425.553597
4426.186556
4426.885044
4427.966827
4428.233609
4430.361487
4429.482783
4433.627259
4431.251101
4436.614842
4438.338840
4459.974137
4442.073465
4440.158607
4462.193764
4466.684173
4461.236991
4459.398354
4454.235926
4452.956447
4449.894413
4419.644679
4446.856161
4407.915969
4419.549927
4420.530841
4420.096674
4423.871382
4422.541518
4425.236179
4424.779656
4426.330150
4426.810004
4427.508670
4429.045558
4428.722960
4432.016372
4429.842293
4436.761287
4430.656701
4443.183339
4435.106631
4438.055730
4464.146091
4473.922818
4487.233350
4468.882225
4463.903986
4466.476140
4458.294942
4456.594214
4448.731813
4457.623237
4449.341675
4412.178304
4421.918281
4420.966976
4421.756813
4424.142898
4423.471058
4425.826918
4425.393920
4427.071778
4427.460515
4428.338747
4429.759810
4429.834833
4432.648196
4431.818784
4435.813518
4436.258570
4437.102640
4446.494541
4447.606236
4455.671070
4465.989140
4464.644931
4471.970565
4472.580243
4463.148052
4460.788327
4457.310587
4452.261919
4448.173803
4445.275820
4416.370839
4423.473469
4422.357765
4423.257590
4424.650570
4424.622868
4426.336877
4426.228998
4427.772471
4428.074445
4429.207028
4430.124753
4431.147805
4432.077956
4434.312399
4434.124047
4438.941208
4440.111057
4440.388672
4444.475099
4447.115226
4454.173051
4462.488870
4462.923543
4456.429128
4456.939578
4453.511274
4448.619311
4448.311649
4449.901684
4446.065205
4418.854565
4424.589413
4423.577382
4424.248484
4425.407672
4425.598116
4426.849225
4427.077461
4428.340231
4428.647037
4430.066459
4430.331810
4432.213415
4432.283423
4434.841669
4435.824613
4436.812240
4440.706780
4441.998959
4443.296172
4451.267272
4459.722398
4459.886610
4460.295980
4463.309849
4461.681292
4457.252009
4457.226972
4453.999771
4450.431159
4446.176953
4421.396857
4425.832094
4424.972516
4425.425773
4426.375319
4426.447077
4427.613779
4427.818997
4428.986970
4429.254422
4430.623060
4430.852714
4432.389253
4433.254279
4433.973129
4436.183344
4437.731060
4438.241522
4439.848737
4441.565338
4443.205135
4444.994922
4448.962857
4455.199528
4453.419384
4451.441859
4452.525793
4451.667395
4448.884242
4450.261303
4445.707879
4423.439746
4426.753532
4425.832883
4426.392694
4427.127476
4427.248743
4428.295648
4428.402878
4429.576200
4429.836602
4430.891652
4431.611122
4432.335503
4433.473607
4434.650848
4435.294870
4437.098253
4438.371980
4439.127527
4440.193883
4442.782233
4448.974632
4453.422353
4452.756301
4452.624418
4456.740192
4455.568152
4455.175905
4453.843869
4451.230673
4447.238010
4425.209433
4427.639945
4427.015241
4427.464913
4427.932285
4428.102622
4428.934136
4429.156019
4430.042271
4430.437952
4431.275241
4431.889227
4432.804237
4433.314326
4434.493308
4435.227022
4435.695238
4436.360668
4436.473634
4437.065812
4438.817693
4441.276269
4442.324764
4446.346888
4450.107872
4450.254889
4449.121467
4451.477765
4450.121670
4450.830382
4448.197296
4426.734208
4428.379750
4427.828962
4428.175404
4428.570989
4428.854366
4429.458601
4429.776801
4430.458173
4430.900002
4431.694481
4432.048489
4433.035114
4433.557696
4434.069338
4434.828353
4435.401406
4435.562482
4436.062815
4437.682952
4438.842039
4441.277687
4444.647452
4448.835623
4448.222080
4450.321013
4452.421107
4453.237695
4451.608718
4452.431288
4449.630068
4428.072815
4429.088840
4428.666992
4429.046167
4429.326157
4429.570210
4430.009701
4430.355750
4430.989335
4431.307254
4432.006363
4432.510387
4433.030769
4433.582969
4434.293646
4434.503838
4434.669969
4435.027032
4435.190566
4435.252138
4435.493353
4437.885482
4439.631332
4442.066971
4444.541045
4449.066334
4447.757359
4449.749454
4450.311245
4452.571129
4450.575362
4429.221219
4429.675865
4429.363610
4429.703034
4429.830454
4430.116912
4430.553178
4430.862585
4431.340343
4431.743276
4432.277273
4432.725528
4433.282895
4433.718069
4434.130592
4434.509906
4434.851265
4434.963057
4434.761960
4435.304028
4436.397300
4438.152427
4439.578349
4443.346672
4445.374390
4447.507397
4447.814236
4452.076242
4451.053439
4453.151165
4451.323024
4430.231469
4430.227591
4430.026727
4430.330612
4430.446913
4430.763241
4431.025308
4431.336645
4431.744632
4432.164924
4432.600027
4432.976301
4433.506022
4433.904291
4434.244125
4434.648797
4434.787779
4434.949504
4435.043665
4435.248416
4435.081437
4436.137288
4437.536677
4440.121901
4441.109562
4445.186025
4447.146058
4449.998732
4450.008153
4453.223666
4451.597972
4431.103680
4430.692350
4430.593842
4430.875639
4430.913962
4431.211204
4431.411637
4431.800923
4432.127863
4432.456080
4432.868592
4433.317901
4433.649216
4434.036798
4434.486536
4434.791603
4434.989753
4435.416879
4435.512551
4435.752087
4436.037191
4437.093344
4437.644796
4439.852134
4441.900801
4445.534863
4446.191717
4449.837418
4451.198328
4452.950984
4451.568992
4431.877997
4431.119731
4431.118747
4431.384082
4431.377069
4431.709363
4431.874605
4432.198767
4432.437112
4432.845587
4433.175771
4433.541653
4433.909557
4434.353526
4434.615362
4434.972011
4435.353855
4435.639267
4435.775122
4436.327969
4436.559465
4437.013053
4437.496388
4439.260699
4440.294085
4443.171285
4445.511757
4449.380132
4450.092825
4452.095393
4451.310206
4432.546048
4431.492819
4431.568157
4431.812799
4431.779112
4432.109584
4432.194577
4432.551437
4432.775409
4433.159978
4433.412805
4433.814289
4434.147669
4434.524595
4434.843305
4435.310616
4435.545668
4435.954009
4436.402523
4436.886346
4437.155764
4438.113078
4438.825827
4439.984674
4441.137836
4443.807863
4445.498240
4447.964719
4449.327269
4451.691649
4450.704702
4433.138786
4431.825752
4431.985540
4432.221663
4432.153737
4432.495025
4432.550454
4432.925603
4433.074453
4433.432753
4433.687331
4434.111850
4434.360386
4434.772435
4435.106973
4435.503153
4435.818754
4436.355605
4436.617871
4437.160236
4437.727842
4438.540735
4438.997066
4440.278238
4441.464825
4443.050556
4444.354463
4447.092140
4448.601302
4450.344900
4449.797268
4433.657256
4432.118989
4432.341057
4432.565530
4432.472525
4432.833489
4432.847003
4433.206024
4433.327684
4433.735743
4433.936673
4434.311885
4434.571856
4435.036002
4435.291635
4435.738904
4436.116122
4436.579446
4436.975062
4437.703623
4438.129713
4438.888882
4439.729523
4440.973113
4441.715004
4443.293038
4444.602317
4446.226392
4447.303395
4449.064600
4448.731069
4434.114367
4432.382382
4432.666655
4432.889868
4432.776996
4433.142626
4433.121351
4433.508541
4433.602033
4433.980450
4434.142034
4434.571242
4434.811090
4435.219662
4435.494582
4436.007073
4436.304063
4436.816241
4437.279653
4437.835025
4438.345488
4439.258909
4439.879689
4440.809349
4441.759088
4443.167221
4443.988105
4445.447153
4446.700416
4448.160432
4447.432452
4434.515036
4432.611496
4432.945540
4433.164618
4433.030774
4433.413844
4433.367177
4433.755316
4433.809340
4434.207084
4434.363721
4434.777444
4434.968045
4435.422486
4435.707015
4436.159537
4436.488607
4437.064017
4437.452470
4438.076786
4438.681162
4439.389696
4440.029033
4441.121364
4441.961693
4442.990671
4443.946567
4445.422922
4446.311033
4447.520847
4445.717718
4434.865956
4432.816848
4433.198237
4433.419038
4433.267351
4433.664443
4433.589111
4433.985059
4434.024293
4434.428728
4434.545816
4434.958316
4435.156239
4435.613059
4435.847072
4436.332380
4436.684307
4437.188551
4437.597430
4438.246508
4438.719984
4439.448883
4440.168886
4440.997003
4441.673354
4442.817395
4443.722933
4444.826630
4445.833419
4447.061546
4444.251575
4435.171232
4432.995303
4433.412060
4433.635264
4433.467304
4433.876597
4433.778705
4434.188848
4434.202173
4434.599999
4434.705014
4435.133728
4435.306114
4435.741776
4435.983367
4436.482346
4436.776987
4437.304040
4437.736874
4438.304578
4438.808941
4439.558084
4440.104709
4440.918400
4441.709689
4442.647923
4443.363701
4444.495167
4445.445677
4446.221290
4443.020339
4435.434932
4433.152656
4433.602858
4433.831341
4433.647330
4434.071179
4433.953890
4434.366482
4434.359752
4434.771643
4434.859772
4435.272691
4435.425698
4435.878684
4436.109926
4436.574551
4436.874027
4437.408584
4437.772428
4438.348818
4438.845103
4439.466566
4440.021987
4440.843989
4441.417386
4442.245685
4443.032085
4443.982967
4444.712191
4445.325834
4442.053731
4435.659293
4433.287335
4433.763509
4433.997142
4433.797405
4434.233398
4434.097711
4434.518585
4434.499070
4434.905995
4434.970033
4435.393259
4435.538717
4435.975583
4436.178087
4436.647984
4436.944139
4437.431720
4437.794292
4438.361623
4438.783202
4439.413291
4439.950270
4440.616157
4441.184181
4442.026767
4442.615942
4443.408060
4444.087625
4444.535446
4441.210694
4435.848036
4433.404200
4433.902226
4434.142172
4433.930308
4434.377242
4434.226063
4434.652099
4434.615094
4435.023171
4435.080280
4435.496055
4435.616077
4436.050972
4436.249815
4436.707409
4436.967842
4437.447107
4437.805602
4438.312728
4438.720312
4439.315372
4439.751533
4440.400741
4440.941178
4441.606761
4442.117152
4442.898596
4443.409212
4443.684789
4440.514824
4436.002710
4433.502043
4434.016600
4434.262802
4434.038380
4434.493657
4434.330845
4434.759382
4434.709464
4435.119416
4435.158204
4435.565675
4435.680848
4436.106653
4436.281765
4436.720044
4436.972231
4437.436989
4437.749011
4438.236839
4438.628798
4439.153716
4439.580020
4440.187761
4440.605935
4441.239946
4441.725606
4442.334837
4442.742763
4442.976867
4439.895179
4436.126725
4433.584113
4434.110889
4434.364041
4434.130322
4434.592494
4434.419167
4434.849056
4434.789586
4435.194273
4435.220200
4435.628252
4435.725426
4436.134638
4436.302632
4436.727506
4436.960361
4437.394389
4437.690692
4438.158810
4438.497829
4438.992913
4439.378881
4439.898135
4440.298570
4440.875512
4441.233764
4441.791286
4442.154054
4442.288628
4439.330912
4436.221474
4433.650258
4434.184627
4434.443994
4434.202681
4434.669297
4434.487246
4434.917249
4434.847651
4435.248435
4435.266818
4435.662466
4435.744098
4436.150286
4436.299003
4436.701820
4436.919833
4437.330754
4437.607903
4438.035409
4438.347798
4438.814512
4439.148185
4439.637609
4439.989011
4440.476622
4440.804778
4441.305010
4441.571957
4441.654919
4438.835807
4436.289198
4433.702348
4434.240893
4434.506578
4434.260134
4434.728793
4434.540760
4434.969687
4434.891487
4435.287734
4435.294642
4435.681177
4435.757210
4436.145441
4436.276602
4436.670297
4436.867313
4437.255388
4437.508571
4437.906727
4438.198233
4438.616635
4438.915489
4439.362933
4439.651786
4440.103771
4440.386757
4440.797523
4441.027942
4441.083137
4438.365478
4436.331050
4433.740934
4434.280305
4434.551104
4434.301190
4434.770264
4434.577915
4435.002996
4434.918361
4435.308787
4435.306341
4435.685605
4435.746850
4436.119723
4436.245881
4436.615905
4436.792342
4437.163736
4437.391263
4437.765136
4438.023989
4438.408732
4438.681221
4439.079188
4439.339477
4439.744291
4439.965895
4440.346235
4440.535721
4440.539220
4437.942467
4436.348609
4433.767008
4434.305500
4434.580708
4434.328750
4434.796826
4434.601769
4435.022301
4434.933108
4435.315356
4435.305727
4435.674456
4435.724941
4436.089165
4436.196463
4436.546765
4436.716281
4437.059796
4437.266050
4437.616697
4437.844456
4438.203438
4438.440859
4438.801242
4439.026411
4439.383783
4439.577618
4439.908401
4440.054291
4440.039056
4437.552140
4436.344215
4433.781536
4434.316885
4434.595476
4434.342942
4434.808370
4434.611775
4435.026828
4434.933415
4435.307405
4435.292112
4435.649051
4435.691225
4436.039701
4436.134104
4436.474567
4436.620344
4436.942062
4437.135510
4437.454609
4437.662231
4437.992715
4438.196187
4438.529863
4438.721855
4439.042669
4439.205688
4439.492968
4439.614133
4439.576014
4437.184568
4436.320449
4433.785359
4434.316051
4434.597747
4434.345663
4434.807115
4434.610867
4435.019028
4434.922645
4435.288826
4435.266834
4435.612779
4435.647742
4435.980863
4436.066358
4436.386556
4436.516425
4436.826782
4436.993467
4437.290530
4437.479578
4437.777774
4437.960857
4438.263079
4438.424551
4438.715682
4438.847425
4439.103984
4439.199608
4439.139936
4436.849492
4436.279436
4433.779150
4434.303869
4434.587846
4434.337147
4434.793837
4434.598670
4434.999029
4434.901394
4435.258071
4435.230637
4435.566947
4435.592736
4435.912699
4435.988029
4436.290652
4436.411143
4436.697302
4436.845941
4437.129277
4437.290412
4437.567452
4437.729110
4437.999718
4438.140178
4438.401574
4438.508953
4438.735515
4438.808946
4438.736354
4436.535882
4436.223114
4433.763909
4434.281467
4434.567195
4434.319373
4434.770151
4434.576928
4434.969352
4434.870820
4435.217823
4435.187075
4435.511661
4435.529824
4435.838345
4435.902132
4436.190658
4436.296760
4436.564745
4436.702763
4436.959695
4437.103262
4437.362802
4437.496641
4437.747399
4437.867005
4438.099004
4438.188311
4438.388637
4438.443001
4438.358682
4436.243830
4436.153355
4433.740658
4434.249891
4434.536998
4434.292586
4434.736344
4434.546722
4434.930134
4434.831420
4435.169343
4435.134496
4435.447793
4435.461525
4435.755819
4435.809945
4436.085794
4436.178018
4436.432281
4436.552220
4436.791283
4436.922654
4437.156001
4437.274316
4437.504955
4437.600416
4437.813354
4437.884145
4438.059903
4438.100072
4438.006671
4435.973939
4436.072258
4433.710316
4434.210022
4434.498299
4434.257981
4434.694441
4434.509074
4434.882552
4434.785444
4435.113131
4435.075347
4435.379041
4435.385965
4435.667354
4435.715933
4435.976150
4436.056851
4436.297151
4436.401894
4436.628006
4436.739288
4436.955125
4437.060080
4437.265937
4437.347571
4437.541186
4437.593905
4437.751070
4437.777775
4437.676888
4435.721374
4435.981470
4433.673444
4434.163118
4434.452283
4434.216339
4434.644985
4434.464348
4434.828069
4434.732900
4435.049855
4435.011157
4435.303384
4435.305217
4435.576821
4435.615738
4435.862402
4435.935653
4436.160172
4436.252754
4436.463348
4436.559670
4436.762932
4436.848202
4437.038154
4437.107262
4437.279016
4437.320676
4437.460067
4437.474032
4437.369403
4435.486483
4435.882562
4433.631126
4434.110313
4434.399564
4434.168660
4434.589257
4434.413894
4434.767628
4434.674633
4434.981672
4434.941775
4435.222909
4435.222098
4435.480968
4435.512639
4435.750288
4435.811500
4436.022590
4436.106080
4436.301533
4436.385773
4436.572770
4436.644299
4436.821329
4436.874085
4437.030311
4437.061810
4437.184442
4437.189335
4437.081024
4435.266945
4435.777145
4433.584272
4434.052019
4434.341311
4434.116161
4434.527721
4434.358244
4434.701931
4434.611780
4434.908653
4434.867869
4435.139539
4435.134442
4435.382133
4435.409769
4435.633993
4435.686044
4435.888587
4435.959113
4436.141930
4436.215445
4436.388416
4436.449168
4436.610333
4436.652438
4436.794542
4436.814543
4436.925361
4436.921327
4436.809714
4435.061422
4435.666554
4433.533472
4433.989335
4434.278738
4434.058988
4434.461439
4434.298785
4434.631730
4434.544940
4434.831686
4434.791085
4435.052589
4435.044069
4435.283061
4435.303437
4435.517033
4435.564142
4435.753179
4435.813700
4435.988068
4436.048900
4436.210240
4436.260211
4436.408172
4436.441816
4436.568669
4436.580718
4436.680872
4436.668554
4436.555548
4434.868709
4435.551996
4433.479357
4433.923055
4434.212227
4433.997950
4434.391729
4434.235398
4434.557636
4434.475213
4434.751440
4434.711334
4434.963065
4434.952561
4435.181241
4435.196333
4435.402324
4435.440034
4435.618917
4435.673897
4435.835661
4435.886178
4436.038547
4436.078030
4436.215024
4436.239527
4436.354019
4436.359184
4436.448943
4436.430653
4436.315948
4434.687290
4435.434579
4433.422571
4433.853852
4434.142630
4433.934027
4434.318725
4434.168794
4434.481226
4434.402558
4434.668435
4434.629791
4434.871908
4434.859100
4435.078640
4435.090377
4435.285780
4435.317380
4435.489638
4435.534075
4435.686369
4435.730788
4435.871763
4435.902521
4436.029849
4436.046337
4436.150364
4436.148763
4436.230143
4436.206245
4436.090136
4434.516651
4435.315320
4433.363605
4433.782361
4434.070543
4433.867542
4434.243203
4434.100104
4434.402253
4434.327319
4434.584239
4434.546353
4434.779074
4434.765187
4434.976238
4434.983415
4435.170356
4435.198192
4435.359943
4435.397298
4435.543745
4435.578343
4435.709821
4435.734768
4435.852186
4435.862105
4435.956200
4435.949391
4436.023280
4435.993969
4435.877841
4434.355806
4435.195056
4433.302929
4433.709145
4433.996589
4433.799104
4434.165835
4434.029333
4434.321326
4434.251076
4434.498412
4434.461234
4434.686253
4434.670716
4434.873138
4434.877584
4435.057138
4435.078822
4435.233036
4435.265919
4435.402709
4435.430303
4435.555413
4435.573000
4435.681649
4435.686762
4435.771520
4435.760289
4435.827632
4435.793919
4435.677968
4434.204346
4435.074551
4433.241085
4433.634787
4433.921227
4433.729096
4434.087043
4433.957144
4434.239332
4434.173445
4434.411175
4434.376269
4434.592782
4434.575602
4434.771467
4434.772798
4434.944150
4434.962160
4435.110444
4435.135656
4435.265927
4435.289007
4435.405160
4435.417436
4435.518631
4435.519253
4435.596280
4435.580823
4435.642681
4435.605350
4435.489862
4434.062273
4434.954422
4433.178415
4433.559640
4433.844932
4433.658047
4434.007381
4433.883883
4434.156300
4434.094978
4434.323898
4434.290780
4434.498702
4434.481861
4434.670193
4434.668315
4434.833908
4434.848029
4434.988923
4435.009121
4435.134752
4435.150630
4435.260231
4435.269438
4435.361987
4435.359300
4435.430050
4435.410759
4435.467906
4435.427612
4435.313191
4433.929097
4434.835292
4433.115264
4433.484077
4433.768274
4433.586268
4433.927130
4433.809819
4434.072934
4434.016242
4434.236164
4434.205006
4434.405705
4434.388442
4434.569245
4434.566540
4434.725388
4434.735100
4434.871320
4434.886920
4435.006019
4435.017430
4435.121997
4435.126395
4435.212145
4435.206891
4435.271924
4435.249823
4435.302733
4435.260372
4435.147402
4433.804490
4434.717767
4433.051891
4433.408523
4433.691424
4433.513971
4433.846757
4433.735381
4433.989470
4433.937155
4434.148644
4434.119929
4434.313074
4434.295479
4434.470576
4434.465713
4434.618002
4434.625871
4434.756575
4434.766873
4434.881793
4434.889885
4434.987830
4434.989059
4435.069409
4435.061135
4435.121873
4435.097490
4435.146648
4435.103218
4434.991880
4433.688120
4434.602077
4432.988458
4433.333245
4433.614670
4433.441738
4433.766465
4433.660769
4433.906172
4433.858284
4434.061730
4434.035025
4434.221199
4434.204111
4434.373004
4434.366038
4434.514351
4434.518432
4434.643623
4434.651846
4434.761787
4434.765510
4434.859108
4434.858267
4434.932171
4434.922315
4434.979487
4434.952997
4434.999332
4434.955354
4434.846034
4433.579390
4434.488647
4432.925681
4433.258563
4433.538270
4433.369642
4433.686343
4433.586441
4433.823337
4433.779829
4433.975103
4433.951045
4434.130807
4434.113460
4434.277053
4434.268781
4434.412196
4434.412745
4434.535204
4434.539961
4434.644327
4434.646321
4434.735838
4434.732287
4434.801075
4434.790125
4434.843839
4434.816297
4434.860151
4434.816112
4434.709275
4433.477739
4434.377880
4432.863387
4433.184398
4433.462340
4433.297851
4433.606867
4433.512657
4433.740809
4433.702073
4433.889355
4433.868223
4434.041115
4434.024196
4434.183251
4434.172771
4434.312216
4434.310639
4434.429141
4434.430365
4434.531986
4434.531627
4434.616401
4434.611651
4434.676198
4434.663509
4434.714975
4434.686878
4434.728385
4434.685052
4434.580756
4433.382540
4434.269776
4432.801725
4433.111030
4433.387208
4433.226682
4433.527987
4433.439426
4433.659135
4433.625080
4433.804565
4433.786392
4433.952658
4433.936903
4434.090573
4434.078769
4434.215141
4434.210193
4434.325755
4434.325109
4434.423095
4434.420226
4434.502014
4434.495862
4434.556620
4434.542790
4434.592462
4434.563878
4434.603802
4434.561398
4434.459775
4433.293116
4434.164543
4432.740878
4433.038813
4433.312885
4433.156246
4433.449978
4433.367003
4433.578452
4433.548698
4433.721067
4433.705770
4433.865660
4433.850758
4433.999633
4433.987137
4434.119487
4434.112497
4434.225991