# vtk DataFile Version 2.0
mfree iwf
ASCII

DATASET UNSTRUCTURED_GRID
POINTS 6231 float
0.000000 0.000300 0.000000
0.000000 0.000310 0.000000
0.000000 0.000320 0.000000
0.000000 0.000330 0.000000
0.000000 0.000340 0.000000
0.000001 0.000350 0.000000
0.000001 0.000360 0.000000
0.000001 0.000370 0.000000
0.000001 0.000381 0.000000
0.000001 0.000391 0.000000
0.000001 0.000401 0.000000
0.000001 0.000411 0.000000
0.000001 0.000421 0.000000
0.000001 0.000431 0.000000
0.000002 0.000441 0.000000
0.000002 0.000451 0.000000
0.000002 0.000461 0.000000
0.000002 0.000471 0.000000
0.000002 0.000480 0.000000
0.000002 0.000492 0.000000
0.000006 0.000501 0.000000
0.000199 0.000563 0.000000
0.000200 0.000621 0.000000
0.000200 0.000578 0.000000
0.000200 0.000635 0.000000
0.000200 0.000657 0.000000
0.000210 0.000707 0.000000
0.000211 0.000710 0.000000
0.000219 0.000722 0.000000
0.000226 0.000734 0.000000
0.000246 0.000769 0.000000
0.000010 0.000300 0.000000
0.000010 0.000310 0.000000
0.000010 0.000320 0.000000
0.000010 0.000330 0.000000
0.000010 0.000340 0.000000
0.000011 0.000350 0.000000
0.000011 0.000360 0.000000
0.000011 0.000370 0.000000
0.000011 0.000380 0.000000
0.000011 0.000390 0.000000
0.000011 0.000400 0.000000
0.000011 0.000411 0.000000
0.000011 0.000420 0.000000
0.000012 0.000431 0.000000
0.000012 0.000440 0.000000
0.000012 0.000451 0.000000
0.000012 0.000460 0.000000
0.000012 0.000472 0.000000
0.000014 0.000478 0.000000
0.000010 0.000492 0.000000
0.000013 0.000498 0.000000
0.000207 0.000673 0.000000
0.000210 0.000685 0.000000
0.000213 0.000695 0.000000
0.000217 0.000701 0.000000
0.000227 0.000718 0.000000
0.000230 0.000726 0.000000
0.000238 0.000739 0.000000
0.000241 0.000749 0.000000
0.000243 0.000755 0.000000
0.000243 0.000763 0.000000
0.000020 0.000300 0.000000
0.000020 0.000310 0.000000
0.000020 0.000320 0.000000
0.000020 0.000330 0.000000
0.000021 0.000340 0.000000
0.000020 0.000350 0.000000
0.000021 0.000360 0.000000
0.000021 0.000370 0.000000
0.000020 0.000380 0.000000
0.000022 0.000391 0.000000
0.000020 0.000400 0.000000
0.000022 0.000410 0.000000
0.000021 0.000420 0.000000
0.000022 0.000431 0.000000
0.000021 0.000440 0.000000
0.000024 0.000451 0.000000
0.000021 0.000460 0.000000
0.000022 0.000470 0.000000
0.000021 0.000481 0.000000
0.000024 0.000494 0.000000
0.000020 0.000497 0.000000
0.000210 0.000641 0.000000
0.000211 0.000665 0.000000
0.000211 0.000678 0.000000
0.000216 0.000687 0.000000
0.000232 0.000696 0.000000
0.000229 0.000710 0.000000
0.000239 0.000729 0.000000
0.000243 0.000743 0.000000
0.000253 0.000752 0.000000
0.000257 0.000759 0.000000
0.000030 0.000300 0.000000
0.000030 0.000310 0.000000
0.000030 0.000320 0.000000
0.000030 0.000330 0.000000
0.000030 0.000340 0.000000
0.000031 0.000350 0.000000
0.000030 0.000360 0.000000
0.000031 0.000370 0.000000
0.000031 0.000380 0.000000
0.000031 0.000390 0.000000
0.000031 0.000400 0.000000
0.000031 0.000411 0.000000
0.000031 0.000420 0.000000
0.000032 0.000431 0.000000
0.000032 0.000440 0.000000
0.000031 0.000450 0.000000
0.000032 0.000459 0.000000
0.000037 0.000473 0.000000
0.000030 0.000478 0.000000
0.000033 0.000488 0.000000
0.000032 0.000498 0.000000
0.000063 0.000500 0.000000
0.000218 0.000666 0.000000
0.000222 0.000680 0.000000
0.000226 0.000702 0.000000
0.000242 0.000708 0.000000
0.000236 0.000715 0.000000
0.000246 0.000724 0.000000
0.000249 0.000732 0.000000
0.000255 0.000742 0.000000
0.000265 0.000754 0.000000
0.000040 0.000300 0.000000
0.000040 0.000310 0.000000
0.000040 0.000320 0.000000
0.000041 0.000331 0.000000
0.000040 0.000340 0.000000
0.000040 0.000350 0.000000
0.000041 0.000360 0.000000
0.000041 0.000370 0.000000
0.000041 0.000380 0.000000
0.000041 0.000390 0.000000
0.000042 0.000400 0.000000
0.000041 0.000410 0.000000
0.000042 0.000420 0.000000
0.000040 0.000431 0.000000
0.000043 0.000439 0.000000
0.000043 0.000450 0.000000
0.000043 0.000460 0.000000
0.000037 0.000470 0.000000
0.000045 0.000478 0.000000
0.000043 0.000497 0.000000
0.000040 0.000498 0.000000
0.000200 0.000528 0.000000
0.000228 0.000666 0.000000
0.000233 0.000679 0.000000
0.000234 0.000688 0.000000
0.000238 0.000697 0.000000
0.000251 0.000711 0.000000
0.000258 0.000728 0.000000
0.000265 0.000735 0.000000
0.000265 0.000744 0.000000
0.000272 0.000750 0.000000
0.000050 0.000300 0.000000
0.000050 0.000310 0.000000
0.000050 0.000319 0.000000
0.000050 0.000329 0.000000
0.000051 0.000340 0.000000
0.000050 0.000350 0.000000
0.000052 0.000360 0.000000
0.000049 0.000370 0.000000
0.000052 0.000380 0.000000
0.000050 0.000390 0.000000
0.000053 0.000400 0.000000
0.000049 0.000410 0.000000
0.000053 0.000419 0.000000
0.000051 0.000430 0.000000
0.000054 0.000440 0.000000
0.000047 0.000451 0.000000
0.000055 0.000459 0.000000
0.000053 0.000470 0.000000
0.000055 0.000482 0.000000
0.000049 0.000488 0.000000
0.000050 0.000498 0.000000
0.000207 0.000657 0.000000
0.000207 0.000615 0.000000
0.000234 0.000676 0.000000
0.000246 0.000690 0.000000
0.000251 0.000702 0.000000
0.000253 0.000718 0.000000
0.000263 0.000712 0.000000
0.000266 0.000724 0.000000
0.000274 0.000737 0.000000
0.000281 0.000744 0.000000
0.000060 0.000300 0.000000
0.000060 0.000310 0.000000
0.000061 0.000321 0.000000
0.000059 0.000331 0.000000
0.000062 0.000339 0.000000
0.000058 0.000350 0.000000
0.000062 0.000359 0.000000
0.000059 0.000370 0.000000
0.000063 0.000380 0.000000
0.000059 0.000390 0.000000
0.000064 0.000400 0.000000
0.000059 0.000410 0.000000
0.000064 0.000419 0.000000
0.000058 0.000430 0.000000
0.000066 0.000440 0.000000
0.000061 0.000449 0.000000
0.000066 0.000459 0.000000
0.000056 0.000471 0.000000
0.000065 0.000476 0.000000
0.000068 0.000486 0.000000
0.000059 0.000496 0.000000
0.000205 0.000648 0.000000
0.000221 0.000658 0.000000
0.000245 0.000673 0.000000
0.000249 0.000681 0.000000
0.000255 0.000693 0.000000
0.000261 0.000702 0.000000
0.000272 0.000716 0.000000
0.000276 0.000724 0.000000
0.000282 0.000731 0.000000
0.000289 0.000739 0.000000
0.000070 0.000300 0.000000
0.000070 0.000310 0.000000
0.000070 0.000320 0.000000
0.000071 0.000329 0.000000
0.000070 0.000341 0.000000
0.000070 0.000350 0.000000
0.000072 0.000360 0.000000
0.000069 0.000371 0.000000
0.000073 0.000379 0.000000
0.000069 0.000390 0.000000
0.000073 0.000400 0.000000
0.000069 0.000410 0.000000
0.000074 0.000421 0.000000
0.000068 0.000430 0.000000
0.000076 0.000438 0.000000
0.000065 0.000453 0.000000
0.000079 0.000458 0.000000
0.000072 0.000470 0.000000
0.000076 0.000486 0.000000
0.000068 0.000496 0.000000
0.000076 0.000496 0.000000
0.000199 0.000515 0.000000
0.000220 0.000649 0.000000
0.000236 0.000661 0.000000
0.000255 0.000681 0.000000
0.000265 0.000692 0.000000
0.000272 0.000700 0.000000
0.000276 0.000709 0.000000
0.000284 0.000716 0.000000
0.000290 0.000726 0.000000
0.000297 0.000733 0.000000
0.000080 0.000300 0.000000
0.000080 0.000310 0.000000
0.000080 0.000320 0.000000
0.000081 0.000331 0.000000
0.000080 0.000340 0.000000
0.000082 0.000349 0.000000
0.000079 0.000360 0.000000
0.000081 0.000369 0.000000
0.000081 0.000381 0.000000
0.000080 0.000391 0.000000
0.000083 0.000400 0.000000
0.000080 0.000410 0.000000
0.000083 0.000419 0.000000
0.000079 0.000431 0.000000
0.000085 0.000444 0.000000
0.000077 0.000448 0.000000
0.000084 0.000465 0.000000
0.000074 0.000470 0.000000
0.000089 0.000472 0.000000
0.000085 0.000483 0.000000
0.000084 0.000496 0.000000
0.000205 0.000638 0.000000
0.000200 0.000613 0.000000
0.000245 0.000664 0.000000
0.000257 0.000669 0.000000
0.000267 0.000684 0.000000
0.000275 0.000692 0.000000
0.000284 0.000699 0.000000
0.000290 0.000712 0.000000
0.000297 0.000720 0.000000
0.000305 0.000727 0.000000
0.000090 0.000300 0.000000
0.000090 0.000310 0.000000
0.000090 0.000320 0.000000
0.000090 0.000329 0.000000
0.000090 0.000339 0.000000
0.000091 0.000351 0.000000
0.000090 0.000360 0.000000
0.000092 0.000371 0.000000
0.000089 0.000380 0.000000
0.000092 0.000389 0.000000
0.000090 0.000400 0.000000
0.000091 0.000411 0.000000
0.000090 0.000422 0.000000
0.000094 0.000429 0.000000
0.000089 0.000437 0.000000
0.000098 0.000455 0.000000
0.000088 0.000453 0.000000
0.000099 0.000473 0.000000
0.000106 0.000480 0.000000
0.000089 0.000495 0.000000
0.000095 0.000495 0.000000
0.000200 0.000534 0.000000
0.000220 0.000642 0.000000
0.000214 0.000630 0.000000
0.000231 0.000653 0.000000
0.000268 0.000675 0.000000
0.000284 0.000687 0.000000
0.000289 0.000701 0.000000
0.000298 0.000706 0.000000
0.000305 0.000714 0.000000
0.000313 0.000720 0.000000
0.000100 0.000300 0.000000
0.000100 0.000310 0.000000
0.000100 0.000320 0.000000
0.000100 0.000331 0.000000
0.000102 0.000341 0.000000
0.000099 0.000350 0.000000
0.000102 0.000359 0.000000
0.000100 0.000369 0.000000
0.000101 0.000380 0.000000
0.000102 0.000391 0.000000
0.000100 0.000401 0.000000
0.000102 0.000409 0.000000
0.000102 0.000418 0.000000
0.000102 0.000433 0.000000
0.000106 0.000442 0.000000
0.000097 0.000446 0.000000
0.000107 0.000461 0.000000
0.000096 0.000465 0.000000
0.000094 0.000481 0.000000
0.000107 0.000491 0.000000
0.000101 0.000494 0.000000
0.000200 0.000582 0.000000
0.000199 0.000598 0.000000
0.000201 0.000608 0.000000
0.000266 0.000668 0.000000
0.000278 0.000676 0.000000
0.000284 0.000681 0.000000
0.000295 0.000692 0.000000
0.000303 0.000696 0.000000
0.000310 0.000708 0.000000
0.000320 0.000714 0.000000
0.000110 0.000300 0.000000
0.000110 0.000310 0.000000
0.000110 0.000320 0.000000
0.000111 0.000330 0.000000
0.000110 0.000339 0.000000
0.000111 0.000350 0.000000
0.000111 0.000361 0.000000
0.000110 0.000371 0.000000
0.000112 0.000379 0.000000
0.000109 0.000390 0.000000
0.000112 0.000399 0.000000
0.000111 0.000411 0.000000
0.000115 0.000423 0.000000
0.000106 0.000426 0.000000
0.000114 0.000438 0.000000
0.000108 0.000450 0.000000
0.000115 0.000461 0.000000
0.000111 0.000470 0.000000
0.000117 0.000480 0.000000
0.000111 0.000493 0.000000
0.000119 0.000492 0.000000
0.000200 0.000543 0.000000
0.000200 0.000547 0.000000
0.000223 0.000634 0.000000
0.000242 0.000655 0.000000
0.000242 0.000645 0.000000
[...]
POINT_DATA 6231
SCALARS density float 1
LOOKUP_TABLE default
4395.685782
4424.576763
4420.510754
4418.365582
4422.759822
4424.032145
4423.373586
4425.842649
4428.720681
4429.199331
4426.551196
4430.009455
4427.383849
4428.029964
4430.347433
4441.140131
4423.068579
4432.361825
4413.167526
4423.427385
4411.365942
4672.942386
4520.550161
4474.712138
4448.164035
4439.890077
4415.166746
4450.972169
4424.708812
4450.476017
4417.612359
4404.608759
4420.526631
4419.731641
4420.016184
4427.075754
4425.558377
4423.100060
4425.061110
4423.876544
4424.350013
4422.194053
4431.802037
4425.964162
4439.726819
4415.853098
4425.717098
4411.203060
4443.216854
4460.949549
4461.532861
4414.478817
4412.457425
4397.745982
4416.139489
4449.559495
4410.931410
4404.513503
4417.260226
4407.093742
4423.516168
4462.639849
4410.277609
4422.243950
4421.652421
4428.719476
4419.749226
4415.646363
4429.389609
4430.668596
4418.724908
4437.693040
4425.121940
4434.625129
4413.681162
4436.416458
4417.307084
4475.591982
4399.391306
4452.448012
4351.906392
4450.318058
4419.152705
4431.092978
4419.432924
4397.010681
4448.582968
4442.967206
4452.915907
4450.219545
4426.697293
4449.079222
4396.913346
4413.580154
4425.670448
4422.428939
4416.998984
4425.386720
4435.989646
4423.751204
4425.955832
4420.897882
4433.182860
4409.125635
4440.018589
4420.942292
4448.186794
4399.552030
4432.901450
4386.356102
4460.387373
4366.923157
4556.266916
4371.179613
4426.636827
4480.270832
4460.228296
4355.842451
4376.609201
4466.949903
4424.825333
4430.611755
4461.074619
4442.377545
4425.028896
4428.568765
4425.619668
4434.305511
4425.377104
4427.455813
4412.203591
4437.725834
4423.554240
4434.462592
4417.806434
4444.912326
4399.555197
4445.014029
4412.382700
4451.557629
4386.395623
4506.460265
4315.605328
4418.080480
4384.297863
4496.048985
4357.536326
4447.460873
4374.457189
4500.287196
4450.269175
4409.752309
4433.145162
4361.609219
4436.672592
4433.553748
4423.508363
4418.612308
4436.986674
4410.881142
4439.744587
4428.794945
4438.664847
4407.429590
4443.421890
4414.519136
4441.081003
4412.785758
4452.944725
4372.479992
4471.600254
4353.562489
4481.260994
4367.683609
4539.291229
4378.722681
4420.797539
4440.298887
4471.173599
4393.859939
4408.447968
4436.214776
4401.734008
4411.009231
4452.134686
4413.385303
4417.862613
4427.418970
4430.644411
4426.454961
4437.201692
4435.825655
4413.587881
4429.561173
4434.843196
4430.620130
4428.366634
4439.946779
4419.889362
4441.629105
4404.575338
4469.372325
4416.190481
4505.445100
4361.404912
4490.275393
4426.881824
4419.811762
4410.315495
4441.018204
4444.049043
4440.982572
4447.031127
4460.493111
4429.038265
4406.907639
4439.737711
4416.086512
4436.877308
4429.823337
4409.841701
4441.107622
4416.957475
4450.660458
4428.493907
4421.542863
4422.657312
4421.997590
4422.865870
4435.220586
4433.704994
4461.130672
4459.700706
4426.358746
4453.821093
4448.218519
4407.518603
4381.234049
4706.154148
4443.206088
4473.851226
4463.469037
4470.433649
4415.374841
4422.023956
4432.453552
4410.866823
4419.932461
4430.951780
4427.470185
4413.722749
4443.098801
4427.308570
4415.069020
4443.381192
4405.211265
4443.156827
4423.297963
4434.202669
4416.749775
4435.899030
4404.572375
4483.323526
4381.755820
4473.094579
4441.860219
4373.670242
4467.355762
4406.564058
4429.299983
4404.917130
4404.635801
4427.078276
4398.410174
4432.649120
4445.785837
4446.646573
4430.340829
4423.647730
4432.252371
4425.955433
4438.112955
4438.142562
4409.341938
4441.206921
4416.875682
4440.408843
4451.476236
4392.530573
4448.690591
4405.249723
4420.141808
4446.497975
4390.591315
4404.364195
4421.062994
4405.213190
4432.851918
4417.556307
4402.485139
4483.079682
4449.356342
4413.537610
4466.696192
4443.854680
4458.353209
4462.426239
4397.807829
4422.291917
4422.200047
4423.671973
4423.303402
4427.866082
4414.329484
4445.983106
4436.029414
4414.134889
4430.588617
4408.149768
4445.893487
4430.843123
4418.893680
4434.508190
4428.412657
4435.527361
4433.473656
4431.538328
4455.749746
4447.316800
4426.732669
4410.996081
4432.231101
4640.373630
4391.167992
4431.983586
4459.502424
4457.329208
4431.505764
4447.677780
4429.372845
4404.778841
4426.097267
4438.373099
4430.137536
4430.313411
4435.169149
4406.232816
4442.032141
4439.219535
4420.212889
4455.241608
4383.740980
4453.715987
4387.265866
4422.936354
4423.029193
4430.083961
4448.448045
4415.413760
4461.242045
4411.139058
4418.120305
4391.843801
4487.604515
4455.110313
4407.514055
4429.239130
4428.102771
4460.707474
4462.860054
4420.912911
4413.478814
4443.597493
4428.731210
4417.484966
4431.081073
4409.666843
4448.749708
4428.830610
4415.151359
4426.542170
4424.366672
4435.599669
4447.530277
4425.506271
4443.071622
4429.597504
4374.734787
4442.008611
4383.692857
4429.733568
4433.560383
4397.774874
4498.405258
4391.304070
4476.745456
4486.628005
4453.875192
4374.741064
4445.864595
4369.804162
4432.072507
4407.359693
4429.788210
4423.430033
4438.985307
4442.716532
4420.965746
4433.003371
4409.533167
4434.968571
4446.670421
4413.108741
4430.902918
4404.969214
4424.509753
4449.367228
4389.221592
4436.333057
4422.094297
4456.032037
4485.147821
4418.585400
4438.549316
4389.126935
4490.211801
4370.587099
4408.510215
4437.611629
4423.036339
4473.344465
4457.762268
4463.838251
4406.154903
4422.103187
4443.607637
4443.833306
4395.661095
4442.577061
4410.401685
4440.948539
4431.160256
4408.286164
4416.582805
4434.957972
4426.308544
4443.477116
4399.864095
4464.241859
4421.304026
4386.671712
4503.641479
4572.626932
4396.655830
4380.376815
4424.897225
4467.039858
4448.942256
4442.674120
4390.490032
4456.955746
4436.103563
4444.617474
4428.022647
4435.599766
4436.961009
4426.932378
4415.386644
4445.927970
4452.758226
4401.778101
4439.903777
4405.937138
4441.322907
4428.110626
4430.777995
4402.096235
4440.404295
4404.170442
4438.106800
4365.422552
4488.244794
4370.527283
4319.877756
4535.970325
4385.038581
4399.255663
4449.838910
4405.200888
4431.410991
4442.877578
4419.226809
4412.705603
4404.858143
4409.971460
4411.586444
4431.914312
4423.789625
4440.494464
4443.783509
4396.722044
4445.833069
4428.364326
4412.155380
4444.866823
4396.500945
4425.529875
4436.980101
4429.432347
4406.313166
4421.225164
4465.755962
4405.094463
4483.919627
4492.606531
4417.281637
4392.096010
4561.226509
4446.347254
4471.891876
4449.456830
4422.764310
4442.985538
4428.857549
4408.990418
4446.612575
4419.222695
4431.766742
4427.488377
4429.120892
4401.972443
4446.213574
4455.790939
4398.162046
4445.165561
4405.742585
4445.453529
4426.092700
4403.558808
4422.540709
4445.433593
4397.056460
4436.115997
4390.674141
4485.161529
4321.383244
4387.785756
4386.969455
4477.753366
4486.260434
4470.971796
4434.406360
4472.504836
4478.062873
4454.581682
4406.104824
4429.549294
4425.959119
4425.985667
4423.659557
4428.722026
4441.142399
4435.675687
4392.332191
4446.012703
4449.645486
4395.570461
4447.092079
4400.676550
4453.079690
4419.943411
4432.155563
4417.398515
4424.017849
4384.872039
4431.050070
4430.121088
4439.051255
4393.535141
4496.601880
4455.549641
4488.028474
4502.869897
4388.520569
4428.357928
4437.212855
4415.458359
4450.541369
4419.052976
4421.958320
4443.560970
4430.953282
4419.197735
4409.598406
4447.469925
4449.646598
4387.297125
4446.562283
4413.387699
4404.814954
4432.709809
4414.070598
4401.772619
4440.282079
4423.364672
4450.634812
4444.208454
4432.143114
4497.138716
4443.640889
4486.604776
4469.148565
4448.345807
4398.360555
4394.955130
4480.030484
4447.836752
4470.557383
4434.439554
4433.892662
4436.719212
4431.211295
4409.158805
4439.768082
4441.393838
4417.713446
4395.987845
4446.532349
4458.016068
4392.971904
4457.736879
4401.450598
4433.878680
4435.491462
4422.923099
4398.494106
4414.764444
4425.431234
4396.689746
4435.513240
4454.777955
4482.991555
4480.202753
4470.864823
4435.036288
4411.503792
4479.979375
4424.545209
4459.110839
4440.139193
4411.354914
4427.469295
4419.409767
4444.688039
4443.138410
4400.154362
4429.060025
4446.713887
4430.144013
4386.729318
4438.881888
4439.749062
4397.202277
4453.733693
4403.541586
4424.380605
4455.278357
4434.680619
4425.915821
4462.115742
4417.162322
4419.780464
4513.261236
4434.796757
4451.644647
4481.291825
4442.783377
4457.679016
4437.336881
4436.114490
4390.188822
4418.789479
4427.512702
4429.002289
4433.754252
4401.367078
4450.086853
4446.837477
4396.283483
4412.183673
4444.671889
4456.786231
4380.216613
4445.946450
4397.791562
4439.414793
4436.355522
4397.921158
4418.670654
4421.748249
4444.546749
4466.414718
4476.408103
4431.516140
4479.463934
4439.370155
4414.261159
4473.629471
4434.770169
4463.961073
4483.134108
4416.930692
4459.321761
4425.668944
4425.577610
4419.109057
4440.431384
4442.673458
4394.597386
4449.148358
4449.743472
4395.300101
4396.334985
4450.208116
4453.631921
4378.198560
4459.503268
4396.249811
4453.338123
4422.789782
4427.214705
4419.954781
4421.898531
4452.830203
4459.131819
4467.715795
4471.630004
4442.828232
4456.685810
4432.434739
4432.031053
4441.918417
4407.203709
4449.164043
4421.468098
4442.770830
4432.628737
4427.560687
4401.001366
4444.465492
4447.956246
4388.262183
4440.543750
4447.219252
4419.232306
4387.922794
4440.151139
4418.208238
4394.527034
4442.581873
4402.101994
4424.535053
4449.642714
4436.288465
4433.999325
4434.378614
4466.632570
4428.738006
4443.673672
4463.255566
4449.812759
4453.473255
4450.670563
4414.178507
4397.157917
4437.946261
4428.247986
4410.616928
4433.183341
4442.141933
4430.274577
4390.506494
4451.730506
4450.967169
4386.535988
4409.689894
4444.900338
4442.532585
4394.661273
4439.897878
4395.740765
4443.351081
4421.494007
4421.299247
4435.724374
4439.679237
4457.795845
4443.453663
4449.084500
4452.054012
4445.554499
4478.518538
4439.286181
4456.078491
4422.498189
4421.262685
4429.965119
4420.025945
4448.073329
4443.212805
4405.333404
4421.825213
4444.676693
4439.889191
4384.822044
4449.933272
4452.740234
4394.435160
4389.458335
4435.997191
4442.228371
4382.566049
4444.181192
4419.166641
4424.908110
4435.952018
4430.174792
4418.860357
4462.726021
4426.814870
4460.536005
4426.815463
4407.617054
4444.156205
4396.208655
4442.832453
4401.227511
4424.393524
4432.551930
4436.244339
4402.169732
4451.120862
4446.112039
4404.619026
4405.756087
4447.825496
4446.083633
4379.464958
4439.726265
4452.507726
4424.213660
4414.900272
4444.089135
4417.978874
4423.068034
4439.346218
4413.903821
4434.364949
4439.431133
4431.485485
4423.964524
4430.746061
4431.879083
4425.602411
4440.307516
4470.937579
4481.124318
4366.797071
4429.798128
4429.391492
4419.347706
4440.876465
4450.291915
4394.356348
4447.007432
4446.444000
4410.118737
4399.896036
4451.431743
4455.065785
4381.854995
4414.478136
4420.578251
4444.834852
4399.045169
4432.708522
4427.586532
4439.173532
4430.181779
4425.255800
4448.797135
4416.696143
4461.654437
4441.468542
4451.320921
4450.821774
4418.461296
4452.032970
4534.346494
4428.202055
4437.188571
4434.603571
4429.997314
4399.243454
4446.013150
4451.901814
4392.198763
4438.767552
4444.411098
4414.655419
4398.517602
4450.205312
4460.726038
4409.384951
4423.397017
4426.056878
4420.053070
4441.182090
4411.271384
4420.885390
4435.783457
4435.052639
4436.496395
4452.374060
4444.363913
4446.275668
4452.769710
4443.856746
4449.056420
4449.362994
4435.548855
4427.779953
4417.985877
4428.916988
4446.901405
4442.273306
4390.028747
4448.267695
4450.252917
4399.137874
4426.885468
4439.610982
4434.592788
4384.383021
4429.229904
4440.126903
4423.466616
4418.516639
4413.339035
4429.246529
4440.995064
4398.363517
4429.609478
4453.151221
4430.649652
4426.303576
4426.541495
4425.253166
4486.823875
4446.916632
4440.426416
4436.865321
4424.772122
4444.685160
4442.535423
4407.383657
4412.558067
4445.768989
4449.616147
4390.216695
4450.209450
4449.177805
4400.406656
4412.528689
4453.311477
4454.978386
4390.548982
4423.931974
4422.069286
4420.430954
4413.096855
4430.612284
4449.733953
4408.641680
4425.522464
4456.584144
4452.664597
4460.224279
4457.706991
4432.112659
4455.439590
4471.682502
4420.196311
4427.112243
4432.480446
4414.090403
4450.129052
4446.942329
4417.293853
4402.475060
4439.573275
4455.958576
4391.909178
4453.349351
4443.494996
4402.338191
4400.488626
4444.438026
4448.910512
4403.200946
4465.858524
4426.365648
4447.963813
4421.892908
4442.229647
4418.086665
4448.937492
4418.871556
4457.973577
4478.274676
4508.629705
4436.200446
4470.738831
4427.834043
4445.515225
4425.663863
4426.691809
4441.408863
4399.034288
4433.686013
4448.095800
4432.756426
4391.458180
4443.720651
4449.205969
4395.146487
4441.638025
4440.881164
4425.768202
4414.147352
4441.962555
4401.531335
4420.270284
4443.011957
4434.806571
4442.373451
4416.035633
4468.917162
4421.431304
4474.765659
4405.863662
4469.892035
4437.615856
4466.822886
4445.570865
4427.569310
4420.551124
4439.027344
4404.332318
4458.131352
4451.186438
4391.656578
4424.147176
4440.562817
4447.181273
4399.828287
4444.164745
4448.822744
4401.648271
4410.020299
4429.125989
4449.628367
4410.890439
4459.658417
4425.905868
4436.078878
4437.683186
4443.224690
4447.169728
4435.920337
4467.038864
4428.965928
4483.428025
4450.671809
4464.174766
4432.468328
4420.468907
4438.318056
4444.252470
4421.221547
4424.398902
4411.364119
4460.692144
4442.403543
4411.655740
4403.419478
4442.045387
4454.566331
4395.508076
4454.704727
4438.896524
4430.471636
4411.150311
4451.669988
4396.165201
4434.453018
4450.318925
4448.331225
4422.758399
4463.607568
4439.587286
4447.624787
4457.549875
4434.478685
4454.994689
4458.688578
4421.468995
4441.608398
4443.456846
4402.503826
4449.937841
4430.671849
4424.555609
4444.594009
4398.708498
4436.088314
4448.237142
4427.656132
4408.803877
4443.867924
4458.894212
4382.108500
4450.082641
4419.604634
4453.371863
4420.949193
4447.428315
4442.820880
4407.724128
4428.391077
4440.584160
4456.208756
4465.669261
4463.746345
4470.970433
4467.955791
4455.338909
4436.533559
4429.620458
4410.722714
4429.095595
4450.033346
4380.425430
4445.139130
4406.144525
4458.405050
4441.264057
4402.840774
4418.344175
4451.401414
4424.183854
4414.613335
4462.261793
4424.390453
4444.953448
4425.983265
4448.735264
4466.760523
4398.103987
4471.891461
4449.917701
4461.634619
4423.427722
4422.000805
4468.594107
4432.469482
4450.807501
4455.390760
4431.709554
4426.461199
4434.427827
4454.597968
4420.440575
4451.622545
4448.985974
4397.788767
4447.280246
4397.937261
4453.800447
4437.643445
4423.785128
4409.688531
4445.846457
4450.079068
4401.825914
4445.818422
4437.706434
4435.207202
4435.495421
4453.311170
4431.621747
4402.363993
4460.756434
4474.549148
4472.034466
4426.636533
4457.940654
4458.771788
4454.290536
4428.346783
4427.793839
4443.757236
4400.387451
4441.053803
4461.932514
4399.410073
4451.098457
4424.792211
4435.707043
4448.397171
4404.000225
4427.062283
4443.657987
4443.474764
4385.562141
4454.856358
4410.798708
4428.796683
4438.738018
4440.061194
4440.596888
4431.697877
4462.220206
4425.677435
4456.817938
4431.532032
4453.953270
4450.938776
4446.793950
4451.893843
4430.682103
4430.346832
4426.856109
4442.903641
4442.199672
4393.732062
4448.118982
4463.582675
4381.023582
4455.965430
4407.417978
4462.173765
4447.108825
4400.224720
4425.603607
4444.924293
4460.682512
4406.379025
4464.663962
4402.575909
4466.303400
4419.519210
4450.154306
4443.006784
4412.827203
4435.892664
4455.286762
4454.877445
4444.888822
4456.852378
4449.782647
4431.604345
4443.244604
4431.735176
4431.639223
4429.102287
4448.795238
4451.003344
4392.528076
4457.849696
4426.019561
4408.533238
4440.958153
4403.744892
4464.225192
4433.141287
4408.180688
4401.352278
4446.386579
4453.606818
4406.075697
4448.217679
4418.176514
4453.781635
4422.640652
4457.683585
4442.167588
4425.174739
4456.469850
4430.018626
4459.770073
4448.149493
4445.115110
4437.456808
4418.719878
4441.252846
4413.787942
4421.327689
4420.504376
4437.675286
4480.224205
4391.717833
4449.230339
4418.391897
4436.377490
4449.603183
4396.901051
4444.681547
4448.503365
4438.628914
4420.201490
4471.473797
4430.759990
4396.437416
4459.185898
4426.951995
4463.421860
4396.855558
4462.759357
4435.989507
4465.534634
4440.558825
4454.283228
4437.074975
4428.913484
4434.124138
4457.629675
4418.516729
4439.433005
4440.648828
4445.421026
4391.011208
4468.797048
4442.938560
4395.243032
4456.932961
4399.113394
4457.401758
4447.986121
4401.953750
4425.185054
4436.723592
4454.992571
4425.551446
4464.743950
4419.018706
4452.138505
4449.262912
4457.313664
4467.022755
4401.436689
4460.029301
4425.868031
4456.880090
4428.821695
4427.378489
4446.249651
4399.059598
4452.462649
4444.922770
4401.337868
4443.950683
4442.365582
4467.808055
4393.112564
4454.593476
4441.357022
4422.991781
4454.777856
4407.904126
4459.521886
4437.925063
4439.599606
4427.996648
4451.221122
4446.070098
4392.169576
4443.226679
4449.537389
4417.212236
4456.156287
4464.954048
4454.540599
4442.805201
4456.656898
4436.290331
4435.944379
4434.225422
4437.943604
4442.895527
4410.324066
4460.599879
4420.485254
4438.182359
4409.795370
4460.016242
4446.892760
4398.877123
4451.413456
4408.827288
4449.075341
4446.419533
4417.133357
4433.911204
4444.197407
4438.226650
4425.710504
4458.057028
4419.943407
4452.657539
4434.873919
4442.647238
4443.465281
4424.878960
4453.439655
4448.641495
4442.228619
4432.490844
4417.734041
4438.068060
4417.160862
4443.716200
4460.648470
4392.662317
4436.603751
4440.135912
4457.273730
4410.984912
4452.511094
4438.058818
4416.821160
4435.697982
4406.706719
4467.957616
4430.051440
4413.806294
4450.728499
4445.460721
4473.959392
4398.118425
4449.020784
4444.094495
4448.800027
4447.143100
4440.524120
4457.364027
4445.750941
4432.516053
4431.066447
4447.737475
4434.165611
4422.617512
4442.512579
4415.437660
4467.250961
4447.255392
4403.091113
4425.846231
4440.590580
4470.820126
4391.796677
4434.348893
4435.240870
4433.053620
4441.836676
4416.143953
4456.077516
4401.459071
4449.252093
4423.583572
4456.976630
4418.666979
4431.170946
4427.281677
4439.002012
4461.042701
4448.923886
4449.706320
4436.049186
4434.230623
4428.475782
4421.555078
4447.307516
4421.416613
4438.447862
4445.330607
4410.399883
4446.097534
4434.353293
4432.694197
4420.949136
4468.447166
4443.710865
4413.614255
4432.544319
4416.599472
4449.357196
4448.328956
4406.326898
4446.352889
4421.090217
4461.041653
4418.845596
4447.403489
4426.342268
4429.693195
4432.825794
4444.527913
4448.343447
4435.973274
4429.977266
4432.198195
4440.921236
4441.422985
4418.686928
4446.676668
4412.988628
4459.360842
4467.109213
4404.754661
4431.788019
4443.900036
4446.027812
4401.416191
4449.403542
4442.857656
4429.021603
4437.969191
4423.235554
4462.492571
4422.768931
4432.595823
4440.294732
4459.129022
4438.811958
4437.627915
4427.963175
4446.683726
4456.469266
4449.510604
4432.813764
4436.221758
4441.386475
4426.471393
4417.829735
4451.597928
4432.510124
4435.046950
4438.874473
4422.545305
4460.149501
4454.408533
4401.541998
4424.912946
4448.985995
4460.031927
4405.826139
4439.525107
4430.022331
4436.256792
4454.521396
4401.135436
4439.150225
4452.268226
4432.066646
4430.577811
4450.779596
4429.673815
4448.205561
4434.203307
4447.419695
4438.981543
4439.843899
4414.780635
4452.999864
4439.608255
4426.625147
4422.875144
4443.136677
4422.570133
4454.330435
4439.979632
4409.994695
4443.269095
4417.275591
4431.105009
4401.509381
4453.983816
4446.708809
4425.698613
4438.631053
4433.268011
4457.126595
4450.915791
4412.385728
4432.646783
4452.655932
4443.036388
4427.567785
4446.295470
4449.447582
4446.624801
4436.567779
4432.849149
4438.435891
4436.562866
4413.149602
4445.459727
4449.804401
4430.034045
4431.658758
4429.353901
4424.493987
4448.436456
4474.990836
4413.155882
4422.680332
4440.329450
4457.570703
4396.033707
4444.410501
4427.104367
4447.466784
4433.033769
4434.612901
4453.007983
4449.252053
4417.211263
4440.197522
4444.260409
4448.015616
4440.951089
4448.714338
4438.693269
4426.017553
4438.116012
4420.741549
4448.542718
4440.041525
4412.822431
4439.495536
4442.486337
4428.525966
4444.735525
4427.616244
4421.116687
4473.911704
4418.555436
4410.636611
4429.823281
4454.046893