# vtk DataFile Version 2.0
mfree iwf
ASCII

DATASET UNSTRUCTURED_GRID
POINTS 6231 float
0.000000 0.000300 0.000000
0.000000 0.000310 0.000000
0.000000 0.000320 0.000000
0.000000 0.000330 0.000000
0.000000 0.000340 0.000000
0.000000 0.000350 0.000000
0.000001 0.000360 0.000000
0.000001 0.000370 0.000000
0.000001 0.000380 0.000000
0.000001 0.000390 0.000000
0.000001 0.000400 0.000000
0.000001 0.000410 0.000000
0.000001 0.000420 0.000000
0.000001 0.000430 0.000000
0.000001 0.000440 0.000000
0.000002 0.000450 0.000000
0.000002 0.000460 0.000000
0.000002 0.000471 0.000000
0.000002 0.000480 0.000000
0.000002 0.000492 0.000000
0.000006 0.000501 0.000000
0.000362 0.000699 0.000000
0.000393 0.000774 0.000000
0.000369 0.000717 0.000000
0.000400 0.000787 0.000000
0.000414 0.000806 0.000000
0.000450 0.000839 0.000000
0.000456 0.000843 0.000000
0.000468 0.000846 0.000000
0.000481 0.000853 0.000000
0.000512 0.000871 0.000000
0.000010 0.000300 0.000000
0.000010 0.000310 0.000000
0.000010 0.000320 0.000000
0.000010 0.000330 0.000000
0.000010 0.000340 0.000000
0.000010 0.000350 0.000000
0.000011 0.000360 0.000000
0.000011 0.000370 0.000000
0.000011 0.000380 0.000000
0.000011 0.000390 0.000000
0.000011 0.000400 0.000000
0.000011 0.000410 0.000000
0.000011 0.000420 0.000000
0.000011 0.000430 0.000000
0.000012 0.000440 0.000000
0.000012 0.000451 0.000000
0.000012 0.000460 0.000000
0.000012 0.000472 0.000000
0.000013 0.000478 0.000000
0.000010 0.000492 0.000000
0.000013 0.000498 0.000000
0.000431 0.000815 0.000000
0.000440 0.000823 0.000000
0.000447 0.000829 0.000000
0.000454 0.000832 0.000000
0.000471 0.000838 0.000000
0.000480 0.000843 0.000000
0.000493 0.000849 0.000000
0.000502 0.000856 0.000000
0.000507 0.000860 0.000000
0.000509 0.000866 0.000000
0.000020 0.000300 0.000000
0.000020 0.000310 0.000000
0.000020 0.000320 0.000000
0.000020 0.000330 0.000000
0.000020 0.000340 0.000000
0.000020 0.000350 0.000000
0.000020 0.000360 0.000000
0.000021 0.000370 0.000000
0.000020 0.000380 0.000000
0.000022 0.000390 0.000000
0.000020 0.000400 0.000000
0.000022 0.000410 0.000000
0.000020 0.000420 0.000000
0.000023 0.000431 0.000000
0.000020 0.000440 0.000000
0.000024 0.000451 0.000000
0.000021 0.000460 0.000000
0.000022 0.000470 0.000000
0.000021 0.000481 0.000000
0.000024 0.000494 0.000000
0.000020 0.000497 0.000000
0.000412 0.000786 0.000000
0.000429 0.000807 0.000000
0.000437 0.000817 0.000000
0.000444 0.000818 0.000000
0.000456 0.000820 0.000000
0.000465 0.000831 0.000000
0.000489 0.000842 0.000000
0.000500 0.000850 0.000000
0.000513 0.000849 0.000000
0.000520 0.000852 0.000000
0.000030 0.000300 0.000000
0.000030 0.000310 0.000000
0.000030 0.000320 0.000000
0.000031 0.000330 0.000000
0.000030 0.000340 0.000000
0.000031 0.000350 0.000000
0.000030 0.000360 0.000000
0.000031 0.000370 0.000000
0.000030 0.000380 0.000000
0.000031 0.000390 0.000000
0.000031 0.000400 0.000000
0.000031 0.000411 0.000000
0.000031 0.000420 0.000000
0.000032 0.000430 0.000000
0.000031 0.000440 0.000000
0.000031 0.000450 0.000000
0.000031 0.000459 0.000000
0.000036 0.000473 0.000000
0.000029 0.000478 0.000000
0.000033 0.000488 0.000000
0.000032 0.000497 0.000000
0.000063 0.000500 0.000000
0.000429 0.000801 0.000000
0.000443 0.000804 0.000000
0.000468 0.000822 0.000000
0.000477 0.000822 0.000000
0.000477 0.000833 0.000000
0.000487 0.000830 0.000000
0.000495 0.000835 0.000000
0.000504 0.000840 0.000000
0.000524 0.000845 0.000000
0.000040 0.000300 0.000000
0.000040 0.000310 0.000000
0.000040 0.000320 0.000000
0.000040 0.000329 0.000000
0.000040 0.000340 0.000000
0.000040 0.000351 0.000000
0.000040 0.000360 0.000000
0.000041 0.000370 0.000000
0.000041 0.000380 0.000000
0.000040 0.000390 0.000000
0.000042 0.000399 0.000000
0.000041 0.000410 0.000000
0.000042 0.000420 0.000000
0.000040 0.000431 0.000000
0.000042 0.000439 0.000000
0.000043 0.000450 0.000000
0.000043 0.000460 0.000000
0.000037 0.000469 0.000000
0.000045 0.000478 0.000000
0.000043 0.000496 0.000000
0.000040 0.000498 0.000000
0.000360 0.000563 0.000000
0.000442 0.000798 0.000000
0.000455 0.000809 0.000000
0.000463 0.000806 0.000000
0.000464 0.000817 0.000000
0.000486 0.000818 0.000000
0.000506 0.000830 0.000000
0.000515 0.000827 0.000000
0.000515 0.000839 0.000000
0.000527 0.000837 0.000000
0.000050 0.000300 0.000000
0.000050 0.000310 0.000000
0.000050 0.000319 0.000000
0.000049 0.000331 0.000000
0.000051 0.000340 0.000000
0.000050 0.000350 0.000000
0.000052 0.000360 0.000000
0.000049 0.000370 0.000000
0.000052 0.000379 0.000000
0.000050 0.000390 0.000000
0.000053 0.000400 0.000000
0.000049 0.000410 0.000000
0.000053 0.000420 0.000000
0.000051 0.000430 0.000000
0.000054 0.000440 0.000000
0.000047 0.000451 0.000000
0.000055 0.000458 0.000000
0.000053 0.000470 0.000000
0.000056 0.000483 0.000000
0.000049 0.000488 0.000000
0.000050 0.000498 0.000000
0.000420 0.000802 0.000000
0.000393 0.000765 0.000000
0.000453 0.000799 0.000000
0.000473 0.000806 0.000000
0.000482 0.000812 0.000000
0.000495 0.000825 0.000000
0.000495 0.000813 0.000000
0.000503 0.000820 0.000000
0.000520 0.000827 0.000000
0.000531 0.000826 0.000000
0.000060 0.000300 0.000000
0.000060 0.000310 0.000000
0.000060 0.000321 0.000000
0.000060 0.000329 0.000000
0.000062 0.000339 0.000000
0.000059 0.000350 0.000000
0.000062 0.000359 0.000000
0.000060 0.000370 0.000000
0.000063 0.000381 0.000000
0.000059 0.000390 0.000000
0.000064 0.000400 0.000000
0.000059 0.000409 0.000000
0.000065 0.000419 0.000000
0.000058 0.000430 0.000000
0.000066 0.000440 0.000000
0.000060 0.000449 0.000000
0.000066 0.000460 0.000000
0.000055 0.000471 0.000000
0.000064 0.000475 0.000000
0.000068 0.000486 0.000000
0.000058 0.000496 0.000000
0.000414 0.000796 0.000000
0.000433 0.000793 0.000000
0.000456 0.000790 0.000000
0.000465 0.000799 0.000000
0.000478 0.000796 0.000000
0.000491 0.000800 0.000000
0.000516 0.000811 0.000000
0.000508 0.000814 0.000000
0.000523 0.000817 0.000000
0.000534 0.000817 0.000000
0.000070 0.000300 0.000000
0.000070 0.000310 0.000000
0.000070 0.000319 0.000000
0.000070 0.000330 0.000000
0.000071 0.000341 0.000000
0.000068 0.000351 0.000000
0.000077 0.000357 0.000000
0.000067 0.000371 0.000000
0.000075 0.000377 0.000000
0.000069 0.000390 0.000000
0.000074 0.000400 0.000000
0.000068 0.000411 0.000000
0.000075 0.000421 0.000000
0.000067 0.000429 0.000000
0.000075 0.000438 0.000000
0.000066 0.000452 0.000000
0.000077 0.000459 0.000000
0.000073 0.000470 0.000000
0.000076 0.000486 0.000000
0.000068 0.000496 0.000000
0.000076 0.000496 0.000000
0.000359 0.000550 0.000000
0.000423 0.000786 0.000000
0.000444 0.000789 0.000000
0.000475 0.000787 0.000000
0.000483 0.000803 0.000000
0.000500 0.000798 0.000000
0.000504 0.000806 0.000000
0.000511 0.000800 0.000000
0.000527 0.000808 0.000000
0.000537 0.000808 0.000000
0.000080 0.000300 0.000000
0.000080 0.000310 0.000000
0.000080 0.000321 0.000000
0.000081 0.000330 0.000000
0.000080 0.000339 0.000000
0.000080 0.000349 0.000000
0.000075 0.000365 0.000000
0.000083 0.000367 0.000000
0.000081 0.000384 0.000000
0.000078 0.000391 0.000000
0.000087 0.000396 0.000000
0.000079 0.000410 0.000000
0.000085 0.000417 0.000000
0.000078 0.000431 0.000000
0.000087 0.000446 0.000000
0.000077 0.000447 0.000000
0.000085 0.000463 0.000000
0.000074 0.000470 0.000000
0.000087 0.000473 0.000000
0.000085 0.000482 0.000000
0.000084 0.000495 0.000000
0.000407 0.000788 0.000000
0.000387 0.000766 0.000000
0.000459 0.000781 0.000000
0.000467 0.000788 0.000000
0.000486 0.000788 0.000000
0.000494 0.000790 0.000000
0.000504 0.000788 0.000000
0.000520 0.000798 0.000000
0.000529 0.000799 0.000000
0.000540 0.000798 0.000000
0.000090 0.000300 0.000000
0.000090 0.000310 0.000000
0.000090 0.000320 0.000000
0.000090 0.000330 0.000000
0.000090 0.000341 0.000000
0.000092 0.000352 0.000000
0.000089 0.000359 0.000000
0.000092 0.000370 0.000000
0.000088 0.000379 0.000000
0.000092 0.000388 0.000000
0.000086 0.000405 0.000000
0.000094 0.000408 0.000000
0.000088 0.000425 0.000000
0.000096 0.000426 0.000000
0.000089 0.000435 0.000000
0.000097 0.000455 0.000000
0.000087 0.000453 0.000000
0.000097 0.000471 0.000000
0.000106 0.000480 0.000000
0.000089 0.000495 0.000000
0.000094 0.000495 0.000000
0.000359 0.000580 0.000000
0.000421 0.000780 0.000000
0.000408 0.000776 0.000000
0.000437 0.000785 0.000000
0.000478 0.000779 0.000000
0.000496 0.000779 0.000000
0.000514 0.000789 0.000000
0.000521 0.000786 0.000000
0.000532 0.000789 0.000000
0.000542 0.000789 0.000000
0.000100 0.000300 0.000000
0.000100 0.000310 0.000000
0.000100 0.000320 0.000000
0.000101 0.000331 0.000000
0.000100 0.000339 0.000000
0.000099 0.000349 0.000000
0.000101 0.000360 0.000000
0.000100 0.000372 0.000000
0.000101 0.000380 0.000000
0.000101 0.000392 0.000000
0.000099 0.000399 0.000000
0.000104 0.000409 0.000000
0.000100 0.000418 0.000000
0.000100 0.000435 0.000000
0.000109 0.000443 0.000000
0.000096 0.000445 0.000000
0.000107 0.000460 0.000000
0.000098 0.000466 0.000000
0.000094 0.000481 0.000000
0.000106 0.000491 0.000000
0.000101 0.000494 0.000000
0.000370 0.000722 0.000000
0.000373 0.000730 0.000000
0.000385 0.000759 0.000000
0.000471 0.000775 0.000000
0.000487 0.000774 0.000000
0.000500 0.000775 0.000000
0.000514 0.000780 0.000000
0.000514 0.000772 0.000000
0.000532 0.000781 0.000000
0.000544 0.000779 0.000000
0.000110 0.000300 0.000000
0.000110 0.000310 0.000000
0.000110 0.000321 0.000000
0.000110 0.000330 0.000000
0.000110 0.000340 0.000000
0.000110 0.000351 0.000000
0.000112 0.000361 0.000000
0.000110 0.000368 0.000000
0.000112 0.000379 0.000000
0.000109 0.000389 0.000000
0.000112 0.000400 0.000000
0.000110 0.000412 0.000000
0.000116 0.000422 0.000000
0.000107 0.000427 0.000000
0.000112 0.000434 0.000000
0.000107 0.000449 0.000000
0.000115 0.000461 0.000000
0.000111 0.000471 0.000000
0.000116 0.000480 0.000000
0.000111 0.000493 0.000000
0.000119 0.000492 0.000000
0.000360 0.000651 0.000000
0.000360 0.000603 0.000000
0.000418 0.000771 0.000000
0.000444 0.000777 0.000000
0.000440 0.000769 0.000000
[...]
POINT_DATA 6231
SCALARS density float 1
LOOKUP_TABLE default
4406.496209
4424.294294
4422.165172
4423.261283
4425.574414
4426.612924
4425.813486
4427.040913
4430.216334
4429.043178
4426.435873
4431.185842
4429.171747
4430.050311
4430.778709
4440.270750
4423.039696
4432.385168
4412.700224
4423.592349
4411.196824
4431.336581
4423.441665
4429.136801
4438.756104
4423.633048
4408.348058
4441.007860
4439.626953
4447.465844
4418.409585
4410.396458
4425.061445
4423.607581
4420.930720
4422.890760
4427.989242
4425.481533
4419.978962
4426.799137
4428.795742
4423.970599
4432.048809
4425.146229
4436.834445
4415.930292
4428.284346
4409.798624
4443.222896
4460.890908
4460.359713
4415.886374
4396.454890
4382.059837
4414.101659
4478.232827
4395.894256
4411.245929
4419.101930
4420.659411
4442.213435
4463.143005
4416.787481
4431.109377
4419.369832
4432.973717
4429.296777
4416.651652
4430.911292
4439.842803
4421.495715
4431.124198
4429.637130
4433.775889
4416.394031
4441.123126
4415.863041
4475.397083
4399.883425
4454.242190
4352.120223
4449.905036
4420.553300
4418.604569
4417.865752
4406.319771
4549.254558
4366.269573
4383.141912
4452.340598
4402.390545
4418.181066
4402.841093
4422.846284
4424.666989
4424.365989
4424.041152
4427.209777
4439.553196
4423.868644
4423.059694
4419.200303
4438.607673
4409.372861
4437.690420
4420.657372
4444.292336
4402.693287
4431.170812
4391.027929
4457.435271
4370.373992
4555.636078
4370.553607
4431.444640
4452.302729
4463.238929
4470.976178
4379.130889
4483.489398
4422.107069
4404.091023
4515.803550
4450.813815
4428.720628
4430.219952
4437.459165
4439.045020
4422.310446
4433.324839
4419.545229
4440.486060
4424.087914
4436.386189
4412.683265
4449.206390
4401.266621
4443.420138
4415.522925
4448.897388
4386.823169
4507.753405
4309.480137
4419.889777
4383.782074
4486.963201
4416.212764
4358.320896
4486.506085
4473.112649
4438.935423
4377.145626
4427.378208
4394.648656
4426.836113
4437.382974
4428.634880
4412.703528
4433.100612
4426.856092
4435.204765
4408.383397
4443.864389
4406.433134
4439.268449
4416.251928
4440.034420
4401.513975
4461.622511
4359.492074
4481.532431
4355.326341
4479.203517
4361.903711
4536.907756
4383.072180
4445.158969
4423.161654
4448.673712
4371.271768
4448.083417
4445.036668
4388.839038
4446.510151
4437.143623
4413.619488
4424.304547
4434.398898
4436.845893
4447.915527
4414.023194
4454.406189
4404.562555
4442.028359
4416.563649
4451.606432
4410.796947
4442.945870
4423.242066
4438.372631
4420.348561
4473.283353
4401.882402
4517.495960
4371.872186
4481.919039
4431.603814
4421.294879
4401.175712
4431.634953
4447.115824
4419.619088
4412.573603
4407.557202
4425.115434
4446.595290
4427.365717
4423.656710
4432.113090
4421.988895
4415.895783
4442.944946
4425.962225
4424.045346
4452.023241
4403.785062
4440.175658
4397.149478
4430.736437
4411.284544
4438.182248
4442.179908
4461.115539
4437.234576
4461.746739
4447.479100
4412.408884
4387.909594
4622.241047
4440.416457
4423.710492
4476.768080
4460.238923
4432.695062
4445.849041
4442.457015
4439.135631
4413.187320
4427.695733
4427.680921
4418.592691
4437.093247
4430.127447
4424.343994
4436.963980
4422.074255
4453.378762
4434.647276
4407.825425
4435.138909
4412.553560
4439.461476
4465.073771
4391.828666
4453.475856
4451.570777
4359.582431
4466.034141
4412.131374
4431.362368
4412.217310
4429.497038
4412.467358
4413.540807
4436.338205
4385.246404
4432.285882
4429.251908
4441.400639
4425.212637
4434.336569
4433.435637
4429.035137
4402.846204
4442.060046
4422.984844
4433.583901
4420.047233
4417.773947
4455.923989
4398.732476
4427.579630
4462.370247
4415.428845
4376.241347
4441.679395
4434.482066
4425.227975
4426.237947
4415.668991
4600.220789
4445.910563
4427.361037
4472.504024
4432.032020
4447.149493
4470.781416
4413.228689
4414.010846
4418.759872
4432.353468
4431.184705
4414.659417
4430.769331
4438.318749
4443.729401
4404.347873
4439.170532
4419.512599
4437.797648
4443.932811
4440.812301
4430.118225
4392.218060
4444.799385
4450.046826
4417.584767
4471.940176
4415.509733
4438.155094
4420.123896
4429.026297
4432.165118
4419.092112
4406.689065
4399.304839
4462.149392
4408.672833
4493.098250
4461.474633
4409.810735
4429.343646
4426.358964
4438.480961
4436.624755
4407.096261
4418.547219
4445.238478
4437.200284
4418.611726
4441.909236
4397.269809
4444.330620
4396.789912
4433.992692
4432.068742
4446.016462
4461.713047
4390.657438
4466.422012
4399.712907
4412.278720
4446.551156
4515.772898
4430.568586
4399.413557
4439.611894
4471.111188
4411.619237
4410.882303
4426.716720
4446.212385
4434.791547
4424.854303
4429.619903
4415.999938
4439.899706
4443.029574
4411.522502
4418.511086
4437.894101
4437.750291
4430.928180
4434.863349
4432.555196
4434.065150
4417.103486
4373.197516
4438.329666
4394.629010
4421.473223
4438.626395
4394.352431
4437.154206
4408.767733
4427.524091
4459.720073
4436.180909
4374.644851
4387.387157
4433.004045
4403.135980
4417.619590
4430.587800
4431.450207
4427.546398
4430.557851
4431.782704
4410.500696
4428.678088
4440.462591
4426.356650
4402.913865
4432.439955
4429.229913
4433.432066
4428.662925
4411.498768
4448.510234
4422.456870
4441.495465
4495.828230
4420.780980
4425.185396
4435.497228
4414.479761
4421.719406
4421.382226
4428.229901
4443.548865
4459.633463
4462.854366
4469.607107
4434.955998
4428.456901
4437.062662
4436.637336
4418.840978
4410.084735
4441.660008
4440.329498
4405.478199
4441.568021
4423.849878
4443.380780
4400.832504
4440.038635
4409.329051
4439.797776
4381.049904
4408.680268
4503.859779
4571.403324
4388.396227
4373.272785
4410.007505
4410.406816
4449.123786
4450.691470
4395.272661
4459.889799
4445.715426
4397.721231
4408.430366
4437.571091
4429.747104
4436.663941
4414.391574
4443.785760
4441.161338
4402.749833
4416.922068
4437.055401
4430.577523
4399.074709
4445.564783
4412.070608
4447.187968
4389.279330
4463.200773
4416.576515
4484.974335
4353.308366
4327.154798
4507.856648
4394.301153
4419.705336
4428.775105
4434.626103
4475.587015
4471.969066
4419.609934
4407.346814
4434.163251
4421.170209
4412.246136
4428.124535
4440.653881
4430.031037
4417.214345
4429.695237
4434.246108
4441.673839
4411.410266
4425.358476
4443.191210
4422.846281
4397.580416
4444.448324
4420.566634
4433.166659
4411.784128
4416.383500
4498.873161
4489.972580
4423.221899
4404.117427
4427.851024
4442.815444
4431.532828
4389.473410
4432.313258
4437.413869
4412.561070
4417.698667
4446.199912
4421.659899
4434.526224
4423.908518
4430.025792
4443.988738
4419.522004
4434.235303
4418.330106
4431.711904
4432.615364
4407.865137
4430.984935
4453.544916
4424.667050
4439.735988
4394.054090
4453.512501
4405.830273
4469.587581
4330.539277
4358.660273
4432.125647
4423.929071
4427.688054
4386.451903
4393.502375
4457.310617
4420.609992
4445.793227
4454.248302
4413.390609
4423.060143
4434.754368
4430.463222
4427.112005
4438.301892
4422.090285
4437.204747
4418.081227
4439.339460
4418.819786
4453.195127
4409.687658
4411.842666
4408.605957
4446.625693
4407.103111
4449.883610
4325.286067
4477.944037
4390.549269
4450.842453
4400.597335
4421.349618
4404.659679
4433.668698
4466.905109
4383.505778
4468.995006
4450.042465
4428.391345
4390.784634
4424.394912
4429.667345
4431.042279
4428.814183
4422.489478
4429.567565
4432.987841
4421.220537
4436.656348
4401.439741
4438.775810
4408.119229
4461.682661
4406.724605
4443.033781
4388.019662
4450.607682
4462.139950
4491.411929
4429.214141
4557.838300
4390.191606
4472.336056
4453.825144
4428.996245
4454.043304
4430.278239
4398.951627
4404.185775
4409.956493
4487.779787
4390.973407
4427.515069
4423.887678
4428.648244
4434.322441
4428.912687
4428.465135
4426.467398
4428.024987
4430.644307
4438.053971
4394.306702
4446.765758
4376.800728
4451.292541
4431.119737
4408.883456
4403.690293
4472.064111
4360.167896
4392.656235
4536.692063
4467.439095
4420.040826
4443.500404
4415.920115
4386.737139
4418.738653
4428.029015
4457.105273
4393.416343
4379.409836
4423.018943
4439.557787
4434.211290
4418.269827
4417.751844
4429.453589
4428.137746
4423.607134
4413.443345
4429.101838
4448.133740
4407.935126
4458.902205
4410.463311
4421.968502
4473.865192
4390.061077
4478.131629
4405.092216
4477.351470
4413.055504
4443.320694
4393.646114
4404.912192
4410.679551
4435.462769
4447.300220
4436.498745
4360.281933
4398.027172
4455.981727
4429.949938
4428.718767
4411.857889
4440.998127
4439.280304
4409.621714
4413.813459
4442.903527
4436.654217
4404.638483
4443.485775
4398.962332
4451.769796
4445.520029
4409.183176
4417.872157
4400.915539
4453.348129
4387.546897
4450.463215
4477.761700
4432.027671
4446.321651
4460.223240
4459.052525
4435.879276
4488.229950
4380.871612
4502.024257
4396.546126
4434.657023
4427.320681
4430.059647
4436.091807
4433.658584
4408.304943
4435.850548
4439.077351
4390.924058
4439.106070
4435.451134
4400.393377
4483.371505
4382.669687
4444.072273
4416.047879
4421.415581
4442.345899
4428.641602
4425.805746
4410.053192
4418.361871
4393.801985
4444.849472
4390.692229
4439.181031
4418.636054
4381.918656
4369.664428
4496.522921
4424.057504
4436.971738
4427.287193
4425.522684
4425.037224
4415.236024
4441.583131
4426.064705
4415.899412
4448.578966
4408.507306
4431.325620
4398.479220
4451.424765
4366.915956
4426.961155
4379.680076
4456.301822
4385.523150
4408.386856
4446.148169
4511.195175
4422.285620
4407.982658
4494.434407
4417.863186
4474.629141
4452.305767
4469.874010
4403.324618
4451.084680
4437.349854
4459.516511
4430.085789
4424.963470
4428.626076
4437.877312
4428.035910
4420.833945
4408.520432
4440.764366
4399.809468
4433.489212
4433.363357
4421.526111
4450.434007
4420.663365
4443.606769
4467.275512
4389.163433
4498.183756
4383.035708
4418.908450
4430.144294
4408.625990
4542.637253
4431.580882
4427.421345
4442.646932
4436.296077
4440.233432
4432.184868
4417.723313
4416.850119
4422.000588
4441.603651
4427.049923
4423.991181
4405.818110
4447.783940
4436.952701
4411.990017
4430.403866
4408.246484
4404.045257
4434.361265
4438.210176
4390.013207
4391.569692
4420.062272
4416.903244
4403.422262
4376.997201
4486.200329
4458.817971
4700.448804
4410.894678
4425.550918
4443.609090
4411.324176
4458.992343
4421.540016
4462.326149
4396.261159
4428.474424
4433.444440
4436.877742
4408.578246
4439.105430
4448.848329
4409.399243
4413.030647
4424.233761
4423.217115
4424.277061
4436.899650
4417.666877
4409.819383
4444.652798
4445.394844
4427.408649
4440.486514
4428.726441
4439.624960
4426.262530
4419.886925
4417.419695
4396.159934
4382.752809
4441.801585
4448.852207
4441.693202
4423.171484
4450.881567
4377.961920
4426.337660
4429.882293
4422.559698
4442.116329
4435.336045
4409.419379
4438.063042
4437.159114
4424.799220
4417.444224
4411.759602
4426.848305
4411.089499
4449.228458
4413.747677
4396.888742
4391.636650
4453.302683
4406.208652
4418.115051
4430.912149
4409.806720
4442.791470
4394.869236
4389.294388
4463.005319
4459.637252
4403.541021
4455.035763
4412.899787
4445.668171
4410.201739
4424.585416
4422.871781
4432.376670
4412.279549
4436.833685
4443.770397
4404.538604
4413.739590
4435.560384
4415.412570
4433.483993
4413.644412
4421.230116
4384.202536
4489.152452
4445.946812
4474.758860
4393.715175
4372.739911
4485.579319
4433.815708
4410.524263
4454.980894
4465.922014
4508.943538
4456.158753
4439.558047
4439.668844
4423.851375
4439.054679
4454.081474
4429.546103
4435.042751
4423.138418
4434.893647
4444.698479
4392.678956
4445.640671
4442.013643
4412.056178
4405.949283
4432.229997
4395.483087
4459.316787
4437.832201
4399.333706
4385.144574
4414.237662
4458.989216
4449.299107
4441.248134
4449.604571
4417.407780
4464.947552
4463.852717
4413.160469
4448.057864
4424.721375
4422.007358
4399.073458
4435.560122
4396.354675
4429.084747
4426.011548
4434.668545
4427.729883
4414.546038
4436.058416
4444.563242
4380.695508
4452.343183
4427.709607
4416.804931
4452.016324
4390.597052
4414.541360
4407.974752
4452.987471
4425.685233
4453.542864
4373.085902
4384.861844
4429.972838
4489.022347
4427.826990
4474.870453
4433.897604
4433.309811
4446.029160
4420.732967
4465.411108
4340.003659
4439.855897
4434.396618
4428.702804
4427.438442
4424.264686
4436.205906
4433.881493
4402.427236
4445.682822
4425.004544
4413.460299
4421.186095
4413.317919
4417.879807
4446.939588
4399.399164
4436.594199
4403.740229
4409.326491
4442.566200
4473.626032
4447.339923
4339.314864
4393.141406
4421.141199
4454.888426
4483.339692
4436.787739
4426.813244
4452.805137
4444.596889
4405.262730
4439.482112
4427.767606
4437.795952
4428.998835
4423.597387
4413.403325
4411.785559
4462.639437
4381.391323
4444.691843
4435.701753
4422.575371
4443.245009
4405.173359
4423.834819
4429.559654
4413.151099
4468.537222
4388.690913
4469.717286
4465.771398
4471.343705
4502.998878
4444.799528
4448.930948
4427.740959
4423.143876
4394.226739
4368.465759
4369.789797
4427.614991
4430.664282
4424.580434
4430.164215
4426.367532
4427.001703
4445.520627
4420.980322
4394.885466
4443.981310
4440.417616
4381.314529
4433.960867
4397.637757
4433.368392
4431.815509
4419.069925
4426.002356
4425.379583
4424.532647
4416.051645
4406.071075
4571.414370
4515.463129
4465.280910
4449.560824
4444.576964
4435.951252
4454.809645
4420.372906
4490.753593
4450.433279
4426.174411
4438.148512
4435.422642
4433.022458
4434.305052
4404.009484
4437.937694
4421.719785
4431.226013
4402.787131
4430.323129
4444.929511
4404.490948
4439.336373
4389.176751
4450.599847
4417.770736
4440.220756
4405.922305
4514.466864
4497.574517
4417.769620
4441.707513
4425.394472
4470.616202
4478.266353
4462.547782
4434.454165
4398.660349
4447.457448
4437.322124
4425.627478
4432.579379
4416.166824
4433.724996
4426.103663
4440.943692
4421.027151
4397.928021
4397.929528
4448.040926
4425.061259
4390.597288
4438.397382
4420.931825
4436.083027
4419.439706
4435.472081
4392.018422
4491.837206
4447.909752
4523.474980
4475.567636
4430.772745
4465.161501
4454.231936
4416.572645
4440.123725
4415.884219
4433.816647
4417.213866
4420.205800
4428.756921
4427.698234
4437.190652
4430.733629
4418.449982
4402.821094
4440.933590
4438.920765
4457.343519
4399.189770
4410.790524
4435.822377
4447.916270
4417.428990
4427.576583
4411.959276
4439.588154
4440.957435
4434.185957
4443.938944
4469.953356
4415.411084
4458.705649
4433.486285
4468.173450
4458.743181
4458.914153
4420.697810
4466.856558
4436.195728
4411.931334
4429.099614
4424.703588
4414.390145
4413.938051
4460.842002
4418.148955
4400.691403
4448.287603
4396.391219
4443.674975
4429.531944
4403.041662
4387.878608
4444.479412
4450.387438
4416.147268
4410.595009
4415.171043
4417.773088
4453.118691
4458.370666
4445.833498
4441.528041
4427.363759
4410.519776
4450.764949
4460.924789
4470.232660
4431.290237
4419.435441
4415.289800
4422.194001
4421.725707
4444.556748
4435.736964
4430.474948
4404.797980
4436.852375
4435.944471
4420.842482
4450.552893
4401.043302
4416.745491
4438.250147
4418.238759
4425.141627
4437.970103
4411.194725
4443.228693
4426.518569
4426.556519
4439.235936
4467.057249
4441.512560
4459.656662
4468.248663
4429.383183
4425.248172
4387.222275
4466.256837
4440.708638
4413.677614
4420.092549
4434.945921
4405.480366
4410.509156
4426.879833
4417.414610
4407.209394
4410.805483
4445.709474
4392.675565
4443.342865
4419.003179
4404.385577
4421.469658
4425.003491
4417.739698
4440.720784
4399.287754
4440.227108
4440.415218
4444.936130
4447.072771
4458.352089
4423.105221
4460.927891
4457.433404
4414.267208
4441.610043
4511.040410
4446.189514
4412.422153
4423.063361
4438.548745
4420.946165
4442.954661
4446.246918
4458.305456
4419.345464
4441.169284
4418.216378
4424.565993
4440.011404
4407.768370
4406.987711
4416.173091
4411.372954
4445.360430
4443.906592
4444.320242
4419.131856
4431.177916
4443.442536
4431.277404
4462.954707
4440.484198
4444.676991
4430.244884
4431.584853
4428.942148
4484.547084
4368.170578
4417.281127
4427.615376
4427.398169
4410.949967
4422.100049
4386.977110
4453.830978
4412.013840
4438.351075
4394.398616
4436.446862
4381.696165
4426.475489
4440.970971
4439.913563
4413.280007
4432.203691
4416.233889
4424.753909
4430.692598
4431.542043
4439.885090
4429.964804
4436.873922
4449.823486
4440.677451
4455.027797
4448.926203
4447.262371
4436.830032
4373.138811
4423.795977
4423.389419
4420.067956
4434.994586
4443.431059
4417.267211
4443.833225
4409.761811
4468.976406
4391.817026
4458.427243
4390.698775
4457.761364
4378.821673
4439.701940
4426.932811
4416.043661
4424.864775
4427.902541
4446.420513
4435.436908
4420.917601
4448.216596
4429.843248
4443.024834
4427.995543
4437.206107
4433.111078
4428.688741
4459.812302
4415.381477
4426.473918
4420.819207
4422.517821
4428.825996
4387.275947
4427.462340
4412.949638
4427.490991
4429.647414
4445.269270
4430.489036
4446.104527
4399.259899
4427.002785
4467.114794
4417.467995
4424.971982
4437.113868
4442.109147
4416.715572
4426.955968
4434.362625
4454.388404
4388.544881
4448.316887
4427.287425
4464.571533
4431.289950
4431.678858
4457.595544
4488.809106
4399.264917
4425.512371
4430.320205
4428.285506
4423.974976
4451.934483
4422.808719
4445.970309
4412.707025
4402.686819
4433.133159
4456.582653
4446.531921
4411.905692
4380.147723
4406.823666
4466.914388
4421.717332
4435.079471
4417.495350
4403.999847
4437.040817
4453.414492
4453.024750
4469.954198
4412.983594
4461.955515
4443.454581
4454.567068
4401.486795
4452.699430
4536.304888
4425.623474
4426.376327
4420.163092
4416.374003
4399.997792
4441.877782
4427.401989
4418.245047
4417.591299
4451.487832
4385.073189
4387.499592
4456.310146
4461.658970
4411.455296
4438.638371
4428.207045
4407.291788
4443.047691
4437.278235
4413.932723
4444.698422
4425.525811
4437.380554
4475.953907
4430.668917
4431.753410
4407.560938
4497.727369
4445.654360
4356.973718
4430.653045
4432.108788
4439.573319
4439.669910
4429.858532
4425.026102
4419.198219
4419.341056
4448.707241
4428.964504
4459.093472
4448.902206
4377.839775
4415.274797
4437.213961
4409.113545
4434.146849
4449.177879
4426.898806
4438.046859
4441.009153
4444.770857
4456.342574
4429.582522
4430.473997
4457.248367
4473.856260
4479.864723
4406.727888
4432.948236
4484.248865
4439.353087
4429.215863
4427.118990
4415.049288
4427.862381
4420.321568
4421.193291
4447.411883
4412.535518
4406.971774
4426.078196
4407.576949
4454.772181
4452.214697
4373.923401
4446.855619
4428.250170
4424.378832
4449.433677
4428.089748
4410.622409
4416.707921
4437.883085
4449.301867
4426.773521
4415.653565
4452.591564
4453.672615
4495.254828
4442.493373
4460.378776
4437.213482
4423.278910
4443.949717
4445.305820
4430.309841
4443.621052
4433.462338
4412.836332
4445.702334
4422.231168
4438.609389
4428.124588
4402.646833
4425.493391
4459.779145
4431.850556
4420.723473
4444.000976
4418.024110
4413.836594
4461.849992
4426.698574
4423.752610
4446.358248
4457.933773
4445.369761
4443.158089
4441.150590
4455.842772
4456.981434
4462.847947
4428.161043
4436.100805
4430.590655
4406.530047
4434.102218
4394.928246
4405.498328
4422.582543
4435.142702
4445.384591
4418.651442
4451.671091
4431.441059
4431.161354
4452.140248
4388.609925
4436.578739
4432.254999
4436.154218
4407.829111
4438.710468
4429.164955
4449.386195
4424.231235
4442.146645
4454.508426
4455.689162
4461.561125
4479.309070
4415.280187
4457.892041
4432.917322
4429.032914
4432.367575
4420.510297
4448.867454
4419.126460
4450.758770
4417.207389
4386.198836
4478.571343
4390.723130
4449.275744
4433.664713
4403.060528
4389.310256
4457.180813
4445.001084
4415.503236
4443.293797
4439.387524
4426.004553
4467.167788
4438.064468
4419.694624
4456.780043
4433.469361
4455.385626
4453.930560
4452.801116
4464.658674
4456.301932
4440.442123
4426.112195
4433.358606
4450.947540
4402.230425
4453.252658
4444.424778
4441.203994
4432.283970
4394.737956
4412.743298
4397.734392
4450.957511
4456.261840
4447.297476
4422.686332
4405.199293
4436.959718
4424.083200
4422.697765
4441.545716
4435.424223
4439.666162
4446.615348
4443.929618
4432.755704
4450.070171
4440.058590
4463.308249
4452.721794
4453.216348
4438.680776
4427.771661
4417.539405
4424.122636
4436.364564
4449.836035
4401.343101
4429.316228
4429.345070
4445.504846
4452.649762
4451.699417
4433.940731
4453.546588
4391.034308
4453.370907
4450.484840
4447.583999