# vtk DataFile Version 2.0
mfree iwf
ASCII

DATASET UNSTRUCTURED_GRID
POINTS 6231 float
0.000000 0.000300 0.000000
0.000000 0.000310 0.000000
0.000000 0.000320 0.000000
0.000000 0.000330 0.000000
0.000000 0.000340 0.000000
0.000000 0.000350 0.000000
0.000000 0.000360 0.000000
0.000001 0.000370 0.000000
0.000001 0.000380 0.000000
0.000001 0.000390 0.000000
0.000001 0.000400 0.000000
0.000001 0.000410 0.000000
0.000001 0.000420 0.000000
0.000001 0.000430 0.000000
0.000001 0.000440 0.000000
0.000001 0.000450 0.000000
0.000002 0.000460 0.000000
0.000002 0.000470 0.000000
0.000002 0.000480 0.000000
0.000001 0.000492 0.000000
0.000006 0.000501 0.000000
0.000961 0.001050 0.000000
0.001034 0.001086 0.000000
0.000978 0.001058 0.000000
0.001047 0.001091 0.000000
0.001069 0.001096 0.000000
0.001118 0.001100 0.000000
0.001126 0.001098 0.000000
0.001138 0.001093 0.000000
0.001151 0.001090 0.000000
0.001181 0.001091 0.000000
0.000010 0.000300 0.000000
0.000010 0.000310 0.000000
0.000010 0.000320 0.000000
0.000010 0.000330 0.000000
0.000010 0.000340 0.000000
0.000010 0.000350 0.000000
0.000010 0.000360 0.000000
0.000011 0.000370 0.000000
0.000011 0.000380 0.000000
0.000011 0.000390 0.000000
0.000011 0.000400 0.000000
0.000011 0.000410 0.000000
0.000011 0.000420 0.000000
0.000011 0.000430 0.000000
0.000011 0.000440 0.000000
0.000011 0.000450 0.000000
0.000012 0.000460 0.000000
0.000011 0.000472 0.000000
0.000013 0.000478 0.000000
0.000009 0.000492 0.000000
0.000013 0.000498 0.000000
0.001088 0.001092 0.000000
0.001103 0.001093 0.000000
0.001111 0.001094 0.000000
0.001117 0.001091 0.000000
0.001133 0.001085 0.000000
0.001144 0.001083 0.000000
0.001159 0.001079 0.000000
0.001169 0.001081 0.000000
0.001175 0.001078 0.000000
0.001178 0.001086 0.000000
0.000020 0.000300 0.000000
0.000020 0.000310 0.000000
0.000020 0.000320 0.000000
0.000020 0.000330 0.000000
0.000021 0.000340 0.000000
0.000020 0.000350 0.000000
0.000021 0.000360 0.000000
0.000020 0.000370 0.000000
0.000020 0.000380 0.000000
0.000021 0.000390 0.000000
0.000020 0.000400 0.000000
0.000022 0.000410 0.000000
0.000020 0.000420 0.000000
0.000022 0.000430 0.000000
0.000020 0.000440 0.000000
0.000023 0.000451 0.000000
0.000021 0.000460 0.000000
0.000022 0.000470 0.000000
0.000021 0.000482 0.000000
0.000024 0.000494 0.000000
0.000020 0.000497 0.000000
0.001055 0.001082 0.000000
0.001084 0.001088 0.000000
0.001094 0.001089 0.000000
0.001099 0.001087 0.000000
0.001108 0.001080 0.000000
0.001124 0.001083 0.000000
0.001150 0.001076 0.000000
0.001165 0.001076 0.000000
0.001172 0.001067 0.000000
0.001179 0.001064 0.000000
0.000030 0.000300 0.000000
0.000030 0.000310 0.000000
0.000029 0.000320 0.000000
0.000031 0.000330 0.000000
0.000030 0.000340 0.000000
0.000031 0.000350 0.000000
0.000030 0.000360 0.000000
0.000031 0.000371 0.000000
0.000031 0.000380 0.000000
0.000031 0.000390 0.000000
0.000031 0.000400 0.000000
0.000031 0.000410 0.000000
0.000031 0.000420 0.000000
0.000031 0.000430 0.000000
0.000031 0.000440 0.000000
0.000030 0.000450 0.000000
0.000031 0.000459 0.000000
0.000036 0.000473 0.000000
0.000029 0.000477 0.000000
0.000032 0.000488 0.000000
0.000032 0.000497 0.000000
0.000063 0.000500 0.000000
0.001076 0.001083 0.000000
0.001093 0.001073 0.000000
0.001118 0.001073 0.000000
0.001127 0.001066 0.000000
0.001134 0.001078 0.000000
0.001137 0.001071 0.000000
0.001149 0.001068 0.000000
0.001156 0.001066 0.000000
0.001178 0.001056 0.000000
0.000040 0.000300 0.000000
0.000040 0.000310 0.000000
0.000040 0.000320 0.000000
0.000040 0.000330 0.000000
0.000040 0.000340 0.000000
0.000041 0.000350 0.000000
0.000040 0.000360 0.000000
0.000041 0.000369 0.000000
0.000041 0.000380 0.000000
0.000040 0.000390 0.000000
0.000042 0.000399 0.000000
0.000040 0.000410 0.000000
0.000042 0.000420 0.000000
0.000040 0.000430 0.000000
0.000042 0.000439 0.000000
0.000043 0.000450 0.000000
0.000042 0.000460 0.000000
0.000037 0.000469 0.000000
0.000045 0.000477 0.000000
0.000043 0.000496 0.000000
0.000040 0.000498 0.000000
0.000860 0.000909 0.000000
0.001083 0.001075 0.000000
0.001101 0.001073 0.000000
0.001108 0.001067 0.000000
0.001118 0.001075 0.000000
0.001139 0.001062 0.000000
0.001159 0.001056 0.000000
0.001157 0.001046 0.000000
0.001168 0.001059 0.000000
0.001175 0.001047 0.000000
0.000050 0.000300 0.000000
0.000050 0.000310 0.000000
0.000050 0.000320 0.000000
0.000049 0.000330 0.000000
0.000052 0.000340 0.000000
0.000050 0.000349 0.000000
0.000051 0.000361 0.000000
0.000050 0.000371 0.000000
0.000052 0.000380 0.000000
0.000050 0.000389 0.000000
0.000052 0.000400 0.000000
0.000049 0.000410 0.000000
0.000053 0.000420 0.000000
0.000050 0.000430 0.000000
0.000053 0.000440 0.000000
0.000048 0.000451 0.000000
0.000054 0.000458 0.000000
0.000053 0.000469 0.000000
0.000055 0.000483 0.000000
0.000048 0.000488 0.000000
0.000050 0.000498 0.000000
0.001074 0.001089 0.000000
0.001029 0.001077 0.000000
0.001095 0.001066 0.000000
0.001109 0.001053 0.000000
0.001126 0.001057 0.000000
0.001141 0.001054 0.000000
0.001131 0.001049 0.000000
0.001150 0.001054 0.000000
0.001165 0.001047 0.000000
0.001171 0.001036 0.000000
0.000060 0.000300 0.000000
0.000060 0.000310 0.000000
0.000060 0.000320 0.000000
0.000060 0.000330 0.000000
0.000061 0.000339 0.000000
0.000059 0.000350 0.000000
0.000062 0.000359 0.000000
0.000059 0.000368 0.000000
0.000061 0.000380 0.000000
0.000059 0.000391 0.000000
0.000063 0.000399 0.000000
0.000060 0.000409 0.000000
0.000063 0.000419 0.000000
0.000058 0.000430 0.000000
0.000065 0.000440 0.000000
0.000060 0.000449 0.000000
0.000065 0.000460 0.000000
0.000055 0.000472 0.000000
0.000064 0.000475 0.000000
0.000068 0.000486 0.000000
0.000058 0.000496 0.000000
0.001063 0.001088 0.000000
0.001074 0.001073 0.000000
0.001090 0.001057 0.000000
0.001105 0.001058 0.000000
0.001120 0.001047 0.000000
0.001122 0.001039 0.000000
0.001151 0.001037 0.000000
0.001142 0.001045 0.000000
0.001161 0.001036 0.000000
0.001168 0.001028 0.000000
0.000070 0.000300 0.000000
0.000070 0.000310 0.000000
0.000070 0.000319 0.000000
0.000070 0.000329 0.000000
0.000071 0.000340 0.000000
0.000070 0.000350 0.000000
0.000071 0.000359 0.000000
0.000068 0.000373 0.000000
0.000082 0.000377 0.000000
0.000071 0.000389 0.000000
0.000072 0.000400 0.000000
0.000068 0.000411 0.000000
0.000074 0.000421 0.000000
0.000068 0.000429 0.000000
0.000075 0.000438 0.000000
0.000067 0.000451 0.000000
0.000077 0.000458 0.000000
0.000073 0.000470 0.000000
0.000076 0.000486 0.000000
0.000068 0.000495 0.000000
0.000076 0.000496 0.000000
0.000851 0.000887 0.000000
0.001063 0.001076 0.000000
0.001083 0.001064 0.000000
0.001102 0.001036 0.000000
0.001118 0.001058 0.000000
0.001133 0.001039 0.000000
0.001143 0.001036 0.000000
0.001136 0.001028 0.000000
0.001157 0.001026 0.000000
0.001165 0.001018 0.000000
0.000080 0.000300 0.000000
0.000080 0.000310 0.000000
0.000080 0.000321 0.000000
0.000080 0.000331 0.000000
0.000080 0.000340 0.000000
0.000081 0.000350 0.000000
0.000082 0.000362 0.000000
0.000075 0.000369 0.000000
0.000074 0.000383 0.000000
0.000080 0.000392 0.000000
0.000090 0.000397 0.000000
0.000079 0.000410 0.000000
0.000085 0.000417 0.000000
0.000079 0.000432 0.000000
0.000086 0.000445 0.000000
0.000077 0.000448 0.000000
0.000085 0.000464 0.000000
0.000074 0.000470 0.000000
0.000087 0.000473 0.000000
0.000085 0.000482 0.000000
0.000083 0.000495 0.000000
0.001053 0.001087 0.000000
0.001024 0.001083 0.000000
0.001086 0.001044 0.000000
0.001097 0.001051 0.000000
0.001110 0.001042 0.000000
0.001116 0.001031 0.000000
0.001126 0.001029 0.000000
0.001146 0.001024 0.000000
0.001153 0.001018 0.000000
0.001161 0.001009 0.000000
0.000090 0.000300 0.000000
0.000090 0.000310 0.000000
0.000090 0.000319 0.000000
0.000090 0.000329 0.000000
0.000091 0.000341 0.000000
0.000089 0.000349 0.000000
0.000092 0.000361 0.000000
0.000087 0.000368 0.000000
0.000093 0.000379 0.000000
0.000089 0.000387 0.000000
0.000084 0.000404 0.000000
0.000093 0.000410 0.000000
0.000087 0.000425 0.000000
0.000096 0.000426 0.000000
0.000090 0.000435 0.000000
0.000098 0.000456 0.000000
0.000087 0.000453 0.000000
0.000099 0.000472 0.000000
0.000105 0.000480 0.000000
0.000089 0.000495 0.000000
0.000094 0.000495 0.000000
0.000868 0.000925 0.000000
0.001057 0.001070 0.000000
0.001046 0.001077 0.000000
0.001076 0.001064 0.000000
0.001094 0.001032 0.000000
0.001120 0.001021 0.000000
0.001134 0.001019 0.000000
0.001140 0.001014 0.000000
0.001150 0.001008 0.000000
0.001156 0.001000 0.000000
0.000100 0.000300 0.000000
0.000100 0.000310 0.000000
0.000101 0.000321 0.000000
0.000099 0.000331 0.000000
0.000102 0.000338 0.000000
0.000099 0.000350 0.000000
0.000101 0.000359 0.000000
0.000100 0.000371 0.000000
0.000100 0.000381 0.000000
0.000099 0.000391 0.000000
0.000100 0.000401 0.000000
0.000102 0.000405 0.000000
0.000101 0.000418 0.000000
0.000100 0.000436 0.000000
0.000110 0.000443 0.000000
0.000095 0.000445 0.000000
0.000108 0.000461 0.000000
0.000095 0.000465 0.000000
0.000094 0.000481 0.000000
0.000106 0.000491 0.000000
0.000101 0.000494 0.000000
0.000983 0.001061 0.000000
0.000993 0.001066 0.000000
0.001018 0.001079 0.000000
0.001099 0.001043 0.000000
0.001110 0.001028 0.000000
0.001110 0.001017 0.000000
0.001131 0.001011 0.000000
0.001122 0.001008 0.000000
0.001144 0.001003 0.000000
0.001152 0.000992 0.000000
0.000110 0.000300 0.000000
0.000110 0.000310 0.000000
0.000110 0.000319 0.000000
0.000110 0.000329 0.000000
0.000110 0.000342 0.000000
0.000111 0.000351 0.000000
0.000109 0.000360 0.000000
0.000112 0.000370 0.000000
0.000110 0.000378 0.000000
0.000112 0.000389 0.000000
0.000113 0.000400 0.000000
0.000110 0.000414 0.000000
0.000116 0.000422 0.000000
0.000106 0.000427 0.000000
0.000112 0.000432 0.000000
0.000105 0.000448 0.000000
0.000115 0.000460 0.000000
0.000110 0.000470 0.000000
0.000116 0.000480 0.000000
0.000111 0.000493 0.000000
0.000119 0.000492 0.000000
0.000930 0.001017 0.000000
0.000877 0.000945 0.000000
0.001051 0.001065 0.000000
0.001071 0.001053 0.000000
0.001061 0.001050 0.000000
[...]
POINT_DATA 6231
SCALARS density float 1
LOOKUP_TABLE default
4415.883565
4426.976239
4423.057422
4424.902575
4424.931816
4422.763666
4424.667662
4425.601769
4427.905034
4429.090416
4427.185599
4430.709649
4427.678715
4432.351982
4432.760042
4438.907932
4423.321479
4432.451794
4414.099681
4424.329175
4411.008315
4422.913926
4426.079861
4431.615617
4437.836109
4420.237486
4397.460774
4428.581391
4449.276179
4449.938363
4417.490759
4416.724775
4422.401265
4427.900110
4428.873821
4425.770503
4428.642286
4428.776592
4430.639102
4429.291725
4433.446001
4427.035050
4432.426772
4424.445953
4433.753672
4416.519274
4430.769924
4410.493305
4441.250865
4462.406945
4459.956810
4416.033943
4408.148795
4418.083925
4436.899499
4512.311085
4396.221963
4406.451074
4424.249426
4399.701541
4450.659494
4438.697597
4420.175652
4433.342371
4427.733362
4419.590041
4428.521306
4430.399087
4422.112150
4431.247181
4416.936340
4427.834340
4424.719770
4434.609337
4424.390210
4442.738184
4411.850131
4473.676595
4400.865783
4455.667253
4350.586480
4451.588153
4421.616755
4427.419066
4439.231539
4416.441411
4503.070251
4323.453525
4359.440296
4412.728109
4428.063754
4424.066541
4403.496964
4429.866857
4428.624657
4421.981735
4437.333241
4435.740516
4427.278828
4427.623590
4437.460892
4430.947708
4443.428690
4415.182558
4435.859824
4409.745134
4446.063115
4407.701314
4430.894337
4391.384874
4448.933946
4377.319615
4548.825096
4372.910141
4432.739506
4472.226212
4441.655460
4472.613535
4348.040802
4482.429766
4455.780368
4415.132545
4476.495325
4432.469274
4431.318220
4425.983155
4436.348351
4435.933740
4417.664242
4438.776950
4434.964485
4428.396056
4414.281190
4430.637847
4407.913923
4454.480171
4416.476799
4440.168251
4416.125024
4445.857070
4392.017847
4508.715948
4312.351285
4419.131907
4384.987127
4429.033104
4392.194838
4432.519873
4435.339404
4503.343697
4436.914093
4403.392656
4490.412300
4444.682058
4417.031029
4428.963994
4432.593499
4428.557176
4426.208554
4442.774339
4438.304261
4411.800151
4446.674147
4431.847408
4440.542223
4432.403256
4425.480233
4404.475588
4452.104411
4374.159893
4482.926927
4356.436123
4472.620828
4360.735487
4538.502871
4381.927319
4438.752495
4429.867786
4463.600709
4442.996137
4447.993836
4441.796022
4401.444113
4409.449243
4413.141310
4420.632703
4429.847361
4439.252389
4421.447168
4440.824200
4423.998877
4429.444566
4438.241630
4431.292535
4406.593498
4427.696345
4425.979837
4442.053961
4423.454588
4441.149555
4410.284154
4462.906603
4407.120961
4516.244411
4377.962887
4479.316137
4431.990425
4415.440926
4395.417294
4405.474648
4426.013541
4451.156747
4425.445647
4420.094813
4404.444724
4412.430039
4433.672997
4431.152256
4425.363909
4427.977636
4433.090221
4417.486293
4437.290651
4420.293113
4409.363126
4385.622456
4456.742903
4387.215130
4434.789461
4405.268346
4436.282871
4443.804102
4462.509013
4435.291704
4449.190362
4449.157918
4413.176779
4387.704853
4434.751213
4459.975323
4433.556296
4415.255560
4390.612387
4428.530758
4452.871859
4437.948629
4437.928499
4414.958514
4429.535134
4426.142258
4436.706733
4402.447112
4433.420008
4427.256374
4426.158001
4459.435388
4444.896127
4425.115071
4430.233745
4438.755619
4434.206140
4433.865912
4456.282525
4390.802323
4460.237480
4447.303504
4356.539720
4471.339566
4410.194278
4429.800075
4415.755025
4436.056089
4433.962714
4393.574550
4448.386960
4433.225799
4404.202027
4436.710878
4437.564817
4433.386149
4425.974457
4431.708012
4418.775238
4431.898439
4429.378107
4426.711959
4441.515914
4455.989675
4432.043160
4439.831092
4387.849574
4427.121720
4453.181340
4409.996479
4370.115226
4426.892163
4401.407024
4440.440978
4422.451151
4411.076673
4426.982921
4419.215503
4436.839968
4488.804880
4397.002021
4384.999078
4436.361796
4441.651551
4430.223892
4412.890374
4431.693637
4427.703858
4423.146187
4449.550768
4424.840376
4415.111388
4444.180958
4401.276846
4446.934107
4398.784301
4446.368633
4449.432189
4418.763598
4392.152337
4454.005807
4464.979837
4425.348948
4482.697910
4430.416310
4431.108753
4417.118097
4426.567722
4434.369402
4426.616807
4453.148565
4465.535407
4380.659598
4408.188791
4469.894840
4451.468519
4424.220923
4422.652245
4437.198075
4443.450369
4405.884529
4439.407359
4420.248177
4436.805734
4442.241694
4413.909544
4443.058616
4401.293024
4443.760718
4400.843825
4458.203009
4414.132385
4431.158665
4469.756432
4420.382733
4458.223777
4401.171380
4408.677302
4438.039169
4438.312358
4415.020780
4382.483082
4403.785938
4451.772930
4459.438002
4407.521838
4423.884641
4452.884671
4431.700804
4426.946210
4423.768327
4436.532680
4444.458919
4417.387218
4415.635326
4436.659508
4398.277537
4465.197084
4406.216645
4414.434516
4456.623312
4452.606773
4419.756380
4375.346914
4442.125741
4377.798247
4432.062964
4438.206331
4389.297499
4440.894551
4414.145817
4428.278246
4455.760574
4441.775117
4419.009559
4345.995752
4460.172991
4387.570438
4418.397498
4438.769630
4436.396916
4426.948564
4436.804210
4406.431772
4455.705508
4440.136727
4411.298934
4452.276934
4417.647139
4432.144999
4394.561044
4423.901807
4443.754902
4403.947569
4447.631878
4402.301407
4459.915428
4493.482282
4420.159338
4438.937490
4435.749955
4421.573163
4423.460065
4417.676958
4436.325949
4460.019484
4463.069037
4466.055229
4496.591914
4454.188616
4433.951425
4436.296178
4425.279280
4430.310194
4441.468737
4420.594190
4416.742975
4418.107428
4439.750693
4399.378916
4451.308268
4415.203413
4448.529018
4412.358083
4451.846377
4368.525978
4430.551018
4496.779695
4578.461809
4383.897287
4375.445419
4424.296773
4420.442632
4447.341343
4454.419432
4400.687770
4442.612139
4425.347484
4405.825481
4404.047877
4447.911672
4430.007841
4428.592525
4442.756460
4418.772091
4431.202391
4401.507560
4443.534521
4455.438722
4410.984833
4421.758987
4439.345519
4430.264928
4449.708188
4402.653886
4454.067911
4418.292435
4516.383282
4344.792280
4323.586949
4456.389982
4393.856449
4416.277205
4430.809296
4434.771801
4482.386286
4445.054710
4441.247323
4433.871063
4400.171572
4423.791796
4412.442844
4434.576783
4424.406810
4436.164110
4416.085853
4443.255729
4444.093981
4405.717089
4390.014595
4439.071698
4447.537220
4424.353607
4420.206709
4416.224579
4420.678868
4438.361859
4433.194854
4404.611990
4480.888081
4468.324269
4422.361089
4408.075115
4428.727657
4450.200214
4404.086380
4371.960517
4461.965009
4461.561177
4421.238322
4406.024848
4432.352323
4429.333430
4439.554098
4421.202704
4436.878218
4439.156854
4422.491745
4414.482150
4439.108820
4447.761445
4424.136429
4389.950445
4442.210987
4408.995142
4427.158791
4462.214164
4390.907858
4437.203449
4400.161038
4468.832857
4383.178368
4399.946878
4420.494795
4421.314141
4439.633044
4440.384951
4401.337903
4467.452582
4445.181405
4399.587710
4467.179358
4429.825365
4439.077530
4427.768207
4427.188809
4434.321368
4420.198608
4438.729308
4430.092514
4422.037284
4390.019906
4444.284900
4446.730793
4436.747552
4452.592150
4429.837276
4421.111044
4428.585182
4442.011530
4381.976203
4437.168879
4422.350610
4437.955349
4388.365686
4422.891344
4434.899165
4439.447908
4444.759287
4411.447402
4475.987549
4479.953664
4413.018389
4418.265198
4420.596159
4423.764440
4426.697357
4433.006195
4407.818868
4449.026380
4406.079764
4448.734115
4451.113424
4428.238721
4393.954490
4431.979354
4396.775989
4445.650013
4436.382448
4408.667620
4445.887901
4372.660197
4466.113446
4420.066225
4554.205144
4376.845369
4467.388141
4419.643636
4437.477450
4445.387111
4378.712641
4463.626407
4388.340347
4412.871390
4410.314040
4420.714689
4433.400373
4429.989926
4428.536536
4437.024903
4416.311569
4445.346750
4423.592062
4392.241554
4419.108056
4420.712586
4450.824406
4441.367574
4422.940610
4419.994336
4443.558647
4438.720163
4471.700271
4483.925803
4399.007469
4384.700689
4434.613286
4415.136448
4428.604896
4462.173458
4434.573313
4410.986438
4432.085644
4452.322643
4455.986763
4422.150114
4411.149546
4432.781770
4427.979983
4422.356264
4438.604721
4418.539900
4441.519580
4405.396493
4448.172804
4435.341340
4400.526842
4425.810591
4413.362932
4461.437302
4432.121712
4406.404159
4465.570476
4431.814094
4405.704785
4392.170114
4457.588595
4416.965726
4449.550498
4419.117090
4428.961772
4429.163146
4391.332132
4371.916508
4449.105998
4356.674189
4429.338842
4442.529161
4424.003854
4438.860094
4432.229151
4428.152838
4428.074560
4412.712500
4430.353024
4421.016234
4394.242758
4461.200180
4393.291501
4445.969554
4463.898909
4405.274718
4380.746275
4459.851318
4418.900446
4413.587007
4442.361840
4451.826861
4428.914715
4423.926683
4423.875259
4466.317661
4412.968539
4436.160529
4479.718574
4341.909556
4486.288824
4385.531443
4419.343454
4432.358197
4429.709954
4423.529853
4426.982310
4434.750077
4434.240633
4427.363859
4423.765127
4400.908574
4444.098601
4403.418319
4447.466119
4401.319399
4426.889177
4426.486506
4424.538241
4403.786425
4455.854003
4402.502592
4429.671740
4424.984254
4414.757571
4445.360310
4416.402366
4448.759960
4466.268736
4424.485293
4395.066535
4448.036633
4437.524215
4443.977782
4428.297983
4425.925583
4433.321114
4440.531426
4411.025084
4433.880722
4399.595285
4446.762512
4436.454774
4408.366498
4450.075332
4421.264047
4441.195954
4449.853336
4386.834360
4459.778747
4404.100359
4454.159264
4430.812451
4471.266162
4415.721182
4422.373156
4451.984404
4421.073157
4440.388233
4454.445553
4425.330582
4463.459482
4425.423893
4421.672302
4434.057992
4431.512828
4441.622053
4417.276601
4435.429169
4422.928912
4438.625398
4438.915258
4410.236179
4430.922773
4421.111150
4452.455406
4456.546319
4442.439135
4421.812388
4437.823108
4448.386287
4393.587690
4450.315471
4367.170386
4429.155075
4429.196484
4414.983651
4454.427955
4433.354702
4441.475695
4389.507930
4448.228333
4425.162732
4442.918051
4409.684040
4419.287693
4424.750580
4438.215447
4410.441719
4440.621831
4431.252707
4413.006116
4425.567503
4446.614906
4416.094616
4450.145340
4383.410217
4468.379790
4384.993781
4406.022348
4393.160025
4446.627335
4430.577409
4461.394002
4420.331656
4434.873744
4428.315569
4433.208639
4425.842915
4387.325810
4413.347642
4435.285326
4418.155290
4411.215209
4475.364482
4409.698912
4442.800102
4422.383784
4433.909086
4438.484778
4425.671139
4420.835341
4461.062487
4408.130232
4432.326532
4404.307011
4443.326948
4414.243271
4410.453325
4410.985164
4446.433439
4430.569707
4463.123681
4402.025387
4464.501623
4417.495504
4442.161616
4411.822078
4425.750448
4432.824019
4429.825510
4410.943469
4429.080660
4413.138207
4448.842221
4413.827252
4397.758660
4432.203729
4435.290747
4428.402298
4418.455451
4444.926306
4418.879488
4435.045831
4416.587892
4441.668626
4414.220042
4421.994146
4425.684378
4448.714611
4438.027398
4442.185309
4390.796829
4450.341048
4391.288704
4456.169692
4420.198222
4432.209557
4408.427082
4431.357051
4418.109908
4431.717541
4475.119478
4401.363553
4410.362936
4440.378677
4413.705804
4438.919615
4407.451075
4429.763234
4429.365913
4426.885770
4442.894504
4426.105763
4418.476186
4434.972690
4421.200380
4434.388897
4442.232964
4410.810403
4440.615597
4416.449799
4425.755678
4416.076571
4443.373447
4407.012725
4380.600644
4388.358084
4462.807709
4436.017655
4411.641499
4419.666691
4411.574454
4451.952094
4438.387297
4405.219324
4466.458222
4422.137202
4424.820615
4446.665174
4430.299506
4432.427617
4433.131165
4403.045473
4448.518252
4429.901830
4425.657993
4442.248355
4403.002030
4434.574606
4443.686179
4416.630198
4437.822290
4455.515384
4418.411114
4404.157817
4418.812856
4484.000795
4457.412173
4436.107163
4440.329490
4437.687772
4438.614946
4422.168449
4423.017150
4421.795034
4440.045553
4425.167815
4432.324918
4418.578414
4433.357231
4432.580852
4426.018108
4434.789499
4446.516520
4423.538556
4423.338535
4416.709378
4445.637704
4434.356514
4426.917258
4422.177130
4435.018069
4439.954376
4403.975782
4437.503240
4456.412094
4395.028678
4448.025519
4391.701979
4388.976354
4427.624949
4437.440015
4426.227075
4393.180708
4465.579086
4396.682037
4427.868882
4411.522154
4463.621925
4352.261431
4416.591756
4432.121435
4436.864199
4417.509794
4432.383977
4415.676863
4456.541625
4442.674383
4406.819213
4414.354216
4433.059378
4436.695832
4415.313043
4424.470311
4456.207991
4435.830747
4420.413658
4401.320810
4395.954762
4464.902607
4458.251915
4443.158483
4403.287033
4398.339900
4424.630221
4443.816688
4444.486552
4377.338155
4464.249927
4426.807484
4463.141384
4417.978769
4429.325813
4440.416828
4426.805947
4430.369525
4441.997372
4405.204772
4412.025461
4447.768326
4429.443744
4427.970825
4423.310369
4451.418600
4426.140356
4423.254693
4400.581032
4436.589089
4467.034440
4454.293224
4329.430086
4472.449014
4462.041729
4432.559397
4480.459578
4428.080013
4443.148397
4461.073273
4437.342504
4406.965193
4406.845011
4403.372594
4437.214584
4432.057266
4427.971942
4423.614740
4417.858836
4430.595421
4449.292088
4424.300668
4416.175808
4404.497366
4449.056736
4400.704533
4435.531929
4411.780234
4449.227405
4402.232592
4447.444001
4373.549623
4447.655254
4322.197259
4498.337732
4437.639877
4419.436172
4421.820501
4491.722383
4416.903734
4445.837856
4404.779468
4472.595278
4366.060812
4431.555244
4449.074603
4431.762896
4428.858468
4434.206704
4441.003567
4407.956307
4423.137502
4428.109176
4451.398874
4438.399589
4406.909505
4433.143011
4431.448403
4402.203766
4459.820716
4389.807846
4468.549504
4388.275435
4475.662796
4463.358990
4504.233502
4418.854640
4413.816194
4381.692083
4436.876652
4404.235904
4429.872399
4459.055827
4451.265207
4448.122489
4353.067377
4453.830613
4427.136001
4435.990491
4417.409258
4427.445576
4421.312928
4427.504045
4436.978352
4402.159335
4408.092097
4440.462921
4416.277881
4440.507473
4427.055512
4409.702377
4461.081887
4421.406955
4435.836785
4431.356456
4433.286374
4507.564107
4445.290947
4426.151924
4441.335389
4417.559027
4399.020424
4450.056674
4408.896961
4436.517012
4443.992425
4444.048660
4412.221495
4423.856699
4432.119982
4431.603646
4428.103032
4433.163333
4446.624590
4442.129182
4434.551843
4420.893464
4409.635631
4453.760360
4447.070043
4413.147679
4394.086971
4415.613709
4404.717977
4450.246343
4402.229005
4396.015634
4426.994474
4392.094720
4418.530016
4420.295375
4431.611200
4399.497075
4448.796368
4371.440958
4391.808744
4481.982867
4473.906280
4409.736209
4427.832637
4430.264149
4419.956491
4426.523147
4420.812807
4412.583909
4397.221714
4429.678604
4415.704842
4409.566003
4461.136616
4419.858628
4436.705207
4443.883866
4438.590133
4466.595106
4387.827720
4445.527413
4433.174382
4450.587795
4430.267542
4460.960320
4419.580363
4441.334814
4446.104567
4474.685055
4467.267370
4441.873662
4379.547958
4419.620704
4398.921614
4431.608077
4426.690428
4437.306123
4429.147825
4401.869501
4420.821786
4452.198831
4453.619962
4446.283577
4430.133307
4442.094298
4418.636370
4416.611505
4422.636136
4423.992448
4435.513372
4442.234120
4415.170003
4446.708126
4434.112426
4428.829394
4415.902887
4427.078059
4410.894069
4430.022887
4458.882203
4417.640977
4497.450310
4380.797904
4447.040861
4427.876513
4427.800361
4432.888815
4416.941560
4437.349661
4444.024617
4415.176086
4430.477829
4427.685100
4436.266656
4407.439597
4409.993014
4461.959616
4412.724142
4431.492253
4414.623467
4443.003421
4403.780836
4410.885800
4425.418221
4440.244983
4434.667254
4403.614071
4476.826935
4437.102971
4452.725017
4429.831435
4451.161258
4438.776567
4341.988785
4393.732075
4407.314547
4416.886480
4431.329901
4428.650030
4402.280541
4440.011679
4402.986066
4420.594010
4421.124640
4433.361624
4407.081628
4409.638888
4446.512754
4412.682822
4406.225662
4429.025772
4415.109988
4465.533596
4388.884627
4427.988167
4438.099275
4425.203956
4425.141019
4438.274692
4383.112478
4434.145683
4467.572905
4437.180224
4367.844086
4455.458562
4471.068992
4416.529687
4426.394192
4429.814707
4426.833560
4452.807421
4417.292018
4442.611737
4432.640052
4444.404507
4450.607973
4392.290811
4388.939409
4455.445815
4449.612085
4434.725674
4407.366632
4451.641984
4403.505189
4419.156088
4381.316477
4427.555272
4434.164586
4432.168183
4410.244635
4446.498635
4426.280777
4413.481983
4408.677684
4387.962077
4467.004246
4399.649446
4432.469968
4432.037838
4427.229572
4417.454275
4432.769959
4409.091032
4426.154468
4425.276642
4439.653455
4439.278262
4416.289847
4404.388342
4447.283054
4424.452506
4422.463685
4393.427152
4440.346798
4407.213068
4444.319427
4471.110633
4444.881138
4439.630073
4423.513350
4447.393163
4433.913180
4474.185136
4422.011670
4457.440830
4449.095641
4465.866628
4428.015774
4402.679286
4421.390755
4438.397797
4430.948492
4423.489289
4430.685042
4451.606639
4405.128725
4424.556676
4423.628224
4434.564456
4444.777443
4430.374635
4402.950918
4410.318826
4461.128935
4400.770152
4439.056252
4406.681973
4373.883061
4471.924960
4454.303015
4437.039877
4408.468947
4423.254066
4395.537476
4454.669533
4411.190686
4402.585967
4368.941934
4405.600843
4403.679356
4436.125494
4426.010367
4425.384192
4435.332483
4410.892366
4431.464101
4443.680828
4432.460690
4419.052546
4427.094180
4436.215467
4450.925563
4424.220872
4443.140655
4468.008412
4399.734825
4385.753887
4470.645311
4401.839537
4440.674844
4416.811949
4398.410261
4436.894347
4420.444336
4438.249460
4448.226259
4455.078842
4391.773645
4413.761124
4440.196696
4448.479032
4428.915926
4425.849630
4429.475479
4439.313202
4433.421814
4437.354208
4445.724087
4417.988693
4431.390230
4445.574224
4419.969466
4432.033198
4421.820070
4437.315007
4447.368277
4418.728158
4432.063952
4465.042749
4419.893088
4332.326912
4408.088200
4427.649943
4421.967542
4427.283308
4430.416223
4474.945500
4408.932644
4429.361560
4460.414099
4388.463599
4372.381833
4424.729253
4431.227127
4433.248419
4399.632994
4437.578462
4420.807175
4416.324617
4400.719052
4423.558969
4431.529880
4417.006370
4443.784567
4441.058389
4401.435415
4461.559265
4383.426006
4421.635828
4456.058327
4381.113384
4541.292082
4388.096753
4430.111088
4412.486774
4435.816835
4450.050453
4455.934040
4432.544447
4424.751573
4478.944625
4448.166301
4429.157004
4434.957603
4429.854069
4425.665516
4442.201135
4423.024577
4433.908013
4419.796691
4450.941596
4425.632821
4419.298182
4405.058234
4430.249247
4395.283844
4444.368563
4437.894778
4466.079139
4445.610825
4421.120478
4416.451082
4431.221484
4490.044792
4443.809785
4463.312435
4435.661856
4453.649275
4452.939853
4456.447842
4437.182993
4473.801028
4416.771527
4478.519498
4434.180380
4431.523317
4421.127344
4438.957352
4405.202701
4452.831379
4421.349713
4447.525860
4412.004586
4448.338346
4423.047661
4427.387688
4423.224136
4445.179296
4377.195421
4454.379996
4389.982067
4411.660784
4434.263775
4447.889293
4523.352906
4444.309342
4466.537331
4470.273154
4450.885920
4423.146279
4434.174627
4394.081656
4362.061046
4342.948791
4393.963099
4426.108061
4438.924958
4422.925641
4425.553114
4434.018152
4445.523342
4443.990043
4443.502751
4434.062940
4453.128646
4405.545644
4463.838397
4435.684234
4441.484983
4445.291602
4413.729087
4387.995758
4447.403523
4408.874209
4422.053307
4447.691149
4423.566764
4415.226290
4428.742190
4460.119236
4406.619731
4364.545878
4434.230457
4472.865133
4413.099339
4449.896870
4431.076863
4421.995903
4426.539215
4427.037174
4433.225837
4397.111928
4406.907424
4412.708064
4456.439958
4429.308371
4410.983296
4439.236278
4414.238214
4415.769355
4422.120876
4450.837003
4444.507179
4447.570721
4392.578338
4415.851853
4425.357365
4429.903252
4383.789117
4447.152120
4397.143194
4406.735333
4440.807813
4447.436730
4475.993133
4389.227976
4422.153952
4431.703154
4418.811603
4431.786552
4444.975683
4448.490946
4437.305467
4433.387149
4439.908784
4389.406908
4437.338903
4384.925161
4442.745089
4441.371707
4441.528954
4440.805751
4422.443134
4416.166249
4460.546789
4476.250039
4380.078590
4419.526456
4425.132609
4434.598420
4412.110813
4402.690371
4433.326532
4443.154144
4436.374171
4452.368849
4423.161439
4394.404505
4423.225607
4439.432177
4422.904102
4401.867134
4433.950685
4417.391355
4418.551628
4442.502359
4409.323196
4436.073764
4432.704487
4437.161631
4387.234040
4447.958201
4429.870204
4428.989834
4451.924710
4453.785473