# vtk DataFile Version 2.0
mfree iwf
ASCII

DATASET UNSTRUCTURED_GRID
POINTS 6231 float
0.000000 0.000300 0.000000
0.000000 0.000310 0.000000
0.000000 0.000320 0.000000
0.000000 0.000330 0.000000
0.000000 0.000340 0.000000
0.000000 0.000350 0.000000
0.000000 0.000360 0.000000
0.000001 0.000370 0.000000
0.000001 0.000380 0.000000
0.000001 0.000390 0.000000
0.000001 0.000400 0.000000
0.000001 0.000410 0.000000
0.000001 0.000420 0.000000
0.000001 0.000430 0.000000
0.000001 0.000440 0.000000
0.000002 0.000450 0.000000
0.000002 0.000460 0.000000
0.000002 0.000470 0.000000
0.000002 0.000480 0.000000
0.000002 0.000492 0.000000
0.000006 0.000501 0.000000
0.000899 0.001003 0.000000
0.000973 0.001039 0.000000
0.000917 0.001010 0.000000
0.000985 0.001043 0.000000
0.001008 0.001048 0.000000
0.001057 0.001052 0.000000
0.001065 0.001050 0.000000
0.001077 0.001045 0.000000
0.001090 0.001042 0.000000
0.001120 0.001043 0.000000
0.000010 0.000300 0.000000
0.000010 0.000310 0.000000
0.000010 0.000320 0.000000
0.000010 0.000330 0.000000
0.000010 0.000340 0.000000
0.000010 0.000350 0.000000
0.000010 0.000360 0.000000
0.000011 0.000370 0.000000
0.000011 0.000380 0.000000
0.000011 0.000390 0.000000
0.000011 0.000400 0.000000
0.000011 0.000410 0.000000
0.000011 0.000420 0.000000
0.000011 0.000430 0.000000
0.000011 0.000440 0.000000
0.000011 0.000450 0.000000
0.000012 0.000460 0.000000
0.000011 0.000472 0.000000
0.000013 0.000478 0.000000
0.000009 0.000492 0.000000
0.000013 0.000498 0.000000
0.001026 0.001045 0.000000
0.001042 0.001046 0.000000
0.001050 0.001046 0.000000
0.001056 0.001044 0.000000
0.001072 0.001037 0.000000
0.001083 0.001036 0.000000
0.001097 0.001032 0.000000
0.001108 0.001033 0.000000
0.001114 0.001030 0.000000
0.001116 0.001039 0.000000
0.000020 0.000300 0.000000
0.000020 0.000310 0.000000
0.000020 0.000320 0.000000
0.000020 0.000330 0.000000
0.000021 0.000340 0.000000
0.000020 0.000350 0.000000
0.000021 0.000360 0.000000
0.000021 0.000370 0.000000
0.000020 0.000380 0.000000
0.000021 0.000390 0.000000
0.000020 0.000400 0.000000
0.000022 0.000410 0.000000
0.000020 0.000420 0.000000
0.000022 0.000431 0.000000
0.000021 0.000440 0.000000
0.000023 0.000451 0.000000
0.000021 0.000460 0.000000
0.000022 0.000470 0.000000
0.000021 0.000482 0.000000
0.000024 0.000494 0.000000
0.000020 0.000497 0.000000
0.000993 0.001034 0.000000
0.001023 0.001040 0.000000
0.001033 0.001042 0.000000
0.001038 0.001039 0.000000
0.001047 0.001032 0.000000
0.001062 0.001035 0.000000
0.001089 0.001029 0.000000
0.001103 0.001028 0.000000
0.001110 0.001020 0.000000
0.001118 0.001016 0.000000
0.000030 0.000300 0.000000
0.000030 0.000310 0.000000
0.000030 0.000320 0.000000
0.000031 0.000330 0.000000
0.000030 0.000340 0.000000
0.000030 0.000350 0.000000
0.000031 0.000360 0.000000
0.000030 0.000371 0.000000
0.000031 0.000380 0.000000
0.000030 0.000390 0.000000
0.000031 0.000400 0.000000
0.000031 0.000411 0.000000
0.000031 0.000420 0.000000
0.000031 0.000430 0.000000
0.000031 0.000440 0.000000
0.000031 0.000450 0.000000
0.000031 0.000459 0.000000
0.000036 0.000473 0.000000
0.000029 0.000478 0.000000
0.000032 0.000488 0.000000
0.000032 0.000497 0.000000
0.000063 0.000500 0.000000
0.001014 0.001035 0.000000
0.001031 0.001026 0.000000
0.001056 0.001027 0.000000
0.001066 0.001019 0.000000
0.001073 0.001030 0.000000
0.001076 0.001023 0.000000
0.001087 0.001020 0.000000
0.001094 0.001018 0.000000
0.001116 0.001008 0.000000
0.000040 0.000300 0.000000
0.000040 0.000310 0.000000
0.000040 0.000320 0.000000
0.000040 0.000331 0.000000
0.000040 0.000340 0.000000
0.000040 0.000350 0.000000
0.000040 0.000360 0.000000
0.000040 0.000369 0.000000
0.000041 0.000380 0.000000
0.000040 0.000390 0.000000
0.000042 0.000399 0.000000
0.000041 0.000410 0.000000
0.000042 0.000420 0.000000
0.000041 0.000431 0.000000
0.000042 0.000439 0.000000
0.000043 0.000450 0.000000
0.000042 0.000460 0.000000
0.000037 0.000469 0.000000
0.000045 0.000477 0.000000
0.000043 0.000496 0.000000
0.000040 0.000498 0.000000
0.000799 0.000861 0.000000
0.001022 0.001027 0.000000
0.001040 0.001025 0.000000
0.001047 0.001019 0.000000
0.001058 0.001025 0.000000
0.001077 0.001014 0.000000
0.001098 0.001008 0.000000
0.001096 0.000998 0.000000
0.001106 0.001011 0.000000
0.001114 0.000999 0.000000
0.000050 0.000300 0.000000
0.000050 0.000310 0.000000
0.000050 0.000320 0.000000
0.000050 0.000329 0.000000
0.000051 0.000340 0.000000
0.000051 0.000350 0.000000
0.000050 0.000361 0.000000
0.000051 0.000371 0.000000
0.000051 0.000380 0.000000
0.000051 0.000389 0.000000
0.000051 0.000400 0.000000
0.000050 0.000411 0.000000
0.000052 0.000420 0.000000
0.000051 0.000430 0.000000
0.000053 0.000440 0.000000
0.000048 0.000451 0.000000
0.000054 0.000458 0.000000
0.000053 0.000469 0.000000
0.000056 0.000483 0.000000
0.000048 0.000488 0.000000
0.000050 0.000498 0.000000
0.001012 0.001042 0.000000
0.000968 0.001030 0.000000
0.001034 0.001019 0.000000
0.001049 0.001005 0.000000
0.001065 0.001008 0.000000
0.001080 0.001008 0.000000
0.001070 0.001002 0.000000
0.001089 0.001006 0.000000
0.001104 0.000999 0.000000
0.001110 0.000989 0.000000
0.000060 0.000300 0.000000
0.000060 0.000310 0.000000
0.000060 0.000320 0.000000
0.000060 0.000331 0.000000
0.000061 0.000339 0.000000
0.000059 0.000349 0.000000
0.000061 0.000358 0.000000
0.000060 0.000368 0.000000
0.000061 0.000380 0.000000
0.000060 0.000391 0.000000
0.000062 0.000400 0.000000
0.000060 0.000409 0.000000
0.000063 0.000419 0.000000
0.000059 0.000431 0.000000
0.000065 0.000440 0.000000
0.000060 0.000449 0.000000
0.000065 0.000460 0.000000
0.000055 0.000472 0.000000
0.000064 0.000475 0.000000
0.000068 0.000486 0.000000
0.000058 0.000496 0.000000
0.001001 0.001041 0.000000
0.001012 0.001026 0.000000
0.001028 0.001008 0.000000
0.001042 0.001011 0.000000
0.001057 0.000999 0.000000
0.001061 0.000991 0.000000
0.001090 0.000989 0.000000
0.001081 0.000997 0.000000
0.001099 0.000988 0.000000
0.001107 0.000980 0.000000
0.000070 0.000300 0.000000
0.000070 0.000310 0.000000
0.000070 0.000319 0.000000
0.000070 0.000329 0.000000
0.000071 0.000340 0.000000
0.000070 0.000351 0.000000
0.000072 0.000359 0.000000
0.000068 0.000373 0.000000
0.000081 0.000377 0.000000
0.000070 0.000390 0.000000
0.000073 0.000400 0.000000
0.000069 0.000411 0.000000
0.000075 0.000421 0.000000
0.000068 0.000429 0.000000
0.000075 0.000438 0.000000
0.000067 0.000451 0.000000
0.000077 0.000458 0.000000
0.000073 0.000470 0.000000
0.000076 0.000486 0.000000
0.000068 0.000495 0.000000
0.000076 0.000496 0.000000
0.000790 0.000840 0.000000
0.001001 0.001029 0.000000
0.001022 0.001017 0.000000
0.001041 0.000988 0.000000
0.001057 0.001011 0.000000
0.001072 0.000991 0.000000
0.001081 0.000988 0.000000
0.001075 0.000980 0.000000
0.001095 0.000979 0.000000
0.001103 0.000971 0.000000
0.000080 0.000300 0.000000
0.000080 0.000310 0.000000
0.000081 0.000321 0.000000
0.000079 0.000331 0.000000
0.000081 0.000340 0.000000
0.000080 0.000349 0.000000
0.000082 0.000361 0.000000
0.000074 0.000370 0.000000
0.000075 0.000383 0.000000
0.000080 0.000392 0.000000
0.000089 0.000397 0.000000
0.000079 0.000410 0.000000
0.000085 0.000416 0.000000
0.000079 0.000431 0.000000
0.000086 0.000445 0.000000
0.000077 0.000448 0.000000
0.000085 0.000463 0.000000
0.000074 0.000470 0.000000
0.000087 0.000473 0.000000
0.000085 0.000482 0.000000
0.000084 0.000495 0.000000
0.000992 0.001040 0.000000
0.000963 0.001035 0.000000
0.001025 0.000997 0.000000
0.001036 0.001004 0.000000
0.001048 0.000994 0.000000
0.001055 0.000983 0.000000
0.001065 0.000981 0.000000
0.001085 0.000977 0.000000
0.001092 0.000970 0.000000
0.001099 0.000961 0.000000
0.000090 0.000300 0.000000
0.000090 0.000310 0.000000
0.000090 0.000319 0.000000
0.000090 0.000329 0.000000
0.000091 0.000340 0.000000
0.000089 0.000350 0.000000
0.000092 0.000362 0.000000
0.000088 0.000369 0.000000
0.000093 0.000379 0.000000
0.000089 0.000387 0.000000
0.000084 0.000404 0.000000
0.000093 0.000410 0.000000
0.000087 0.000425 0.000000
0.000096 0.000426 0.000000
0.000089 0.000435 0.000000
0.000097 0.000455 0.000000
0.000087 0.000453 0.000000
0.000097 0.000471 0.000000
0.000106 0.000480 0.000000
0.000089 0.000494 0.000000
0.000094 0.000495 0.000000
0.000807 0.000877 0.000000
0.000996 0.001023 0.000000
0.000984 0.001030 0.000000
0.001014 0.001016 0.000000
0.001033 0.000985 0.000000
0.001059 0.000973 0.000000
0.001073 0.000972 0.000000
0.001079 0.000966 0.000000
0.001088 0.000961 0.000000
0.001095 0.000952 0.000000
0.000100 0.000300 0.000000
0.000100 0.000310 0.000000
0.000101 0.000321 0.000000
0.000099 0.000331 0.000000
0.000102 0.000339 0.000000
0.000099 0.000350 0.000000
0.000101 0.000359 0.000000
0.000101 0.000370 0.000000
0.000100 0.000381 0.000000
0.000100 0.000391 0.000000
0.000100 0.000400 0.000000
0.000103 0.000406 0.000000
0.000101 0.000418 0.000000
0.000100 0.000436 0.000000
0.000110 0.000444 0.000000
0.000096 0.000445 0.000000
0.000107 0.000460 0.000000
0.000098 0.000467 0.000000
0.000094 0.000481 0.000000
0.000106 0.000491 0.000000
0.000101 0.000494 0.000000
0.000922 0.001014 0.000000
0.000932 0.001019 0.000000
0.000957 0.001032 0.000000
0.001037 0.000995 0.000000
0.001048 0.000980 0.000000
0.001048 0.000969 0.000000
0.001069 0.000963 0.000000
0.001060 0.000960 0.000000
0.001083 0.000955 0.000000
0.001090 0.000944 0.000000
0.000110 0.000300 0.000000
0.000110 0.000310 0.000000
0.000110 0.000319 0.000000
0.000110 0.000329 0.000000
0.000111 0.000342 0.000000
0.000110 0.000351 0.000000
0.000111 0.000360 0.000000
0.000111 0.000370 0.000000
0.000111 0.000378 0.000000
0.000112 0.000388 0.000000
0.000113 0.000400 0.000000
0.000110 0.000414 0.000000
0.000116 0.000422 0.000000
0.000106 0.000427 0.000000
0.000112 0.000432 0.000000
0.000107 0.000449 0.000000
0.000115 0.000461 0.000000
0.000111 0.000471 0.000000
0.000116 0.000480 0.000000
0.000111 0.000493 0.000000
0.000119 0.000492 0.000000
0.000868 0.000970 0.000000
0.000816 0.000897 0.000000
0.000989 0.001018 0.000000
0.001010 0.001005 0.000000
0.000999 0.001002 0.000000
[...]
POINT_DATA 6231
SCALARS density float 1
LOOKUP_TABLE default
4413.142030
4427.658452
4423.238391
4421.851187
4422.061942
4421.277158
4424.268206
4426.165259
4429.016060
4429.853856
4426.475959
4430.391564
4429.660913
4432.397765
4431.614140
4438.929794
4423.316778
4432.674499
4413.582274
4424.233245
4411.249783
4422.090673
4424.109415
4427.376591
4438.008199
4419.601670
4395.801261
4424.920501
4448.620300
4449.818356
4418.341897
4418.481119
4425.109962
4424.077472
4428.027529
4430.726095
4430.910967
4427.491418
4431.595216
4428.181689
4430.590159
4426.816033
4433.968512
4424.292517
4431.878862
4414.294047
4430.267203
4411.765825
4439.171144
4464.338189
4459.811354
4416.111499
4407.113693
4418.109619
4439.026363
4514.440558
4408.030358
4406.359011
4424.586009
4397.905256
4450.342452
4438.728956
4419.379766
4426.350644
4429.335690
4424.331426
4422.401121
4425.884363
4421.706309
4430.498789
4414.711763
4432.520210
4424.527977
4433.308616
4421.016365
4444.356349
4420.335656
4468.994017
4401.613694
4454.575156
4350.411122
4451.522634
4421.404221
4426.041009
4437.760882
4415.032411
4506.506341
4317.535162
4359.377750
4418.848131
4426.920933
4425.242569
4401.756338
4427.543382
4431.174278
4425.698131
4429.541065
4435.097529
4433.064230
4429.738001
4437.666605
4429.686330
4443.408125
4409.813748
4438.397573
4420.283979
4438.116994
4405.289779
4428.141538
4398.634010
4452.765839
4374.598518
4550.224246
4372.632476
4431.629149
4468.744737
4440.274461
4471.402611
4346.199534
4471.321622
4459.047024
4414.604477
4474.845678
4432.470345
4428.330969
4426.413883
4429.070053
4436.732932
4426.001906
4429.704252
4432.205050
4426.342254
4419.056421
4422.884440
4420.545159
4448.519636
4409.158909
4443.734270
4421.939553
4454.077030
4388.471397
4507.102413
4309.562752
4419.424190
4385.352852
4428.390521
4393.740137
4432.577455
4429.564307
4507.959851
4441.285794
4404.058769
4497.742119
4445.327506
4416.825744
4428.345557
4435.618875
4433.020297
4431.465187
4431.502095
4438.766836
4423.013440
4442.731472
4433.658515
4439.081444
4427.586254
4425.090684
4412.757506
4455.467738
4368.101063
4478.088540
4361.886310
4470.979716
4359.543936
4538.265562
4382.434584
4440.156173
4431.400374
4468.734215
4441.371986
4441.193134
4446.698104
4392.981218
4401.590306
4410.553031
4420.974912
4434.696438
4436.540613
4417.405223
4439.675677
4434.131978
4435.878900
4423.147624
4429.227717
4395.514314
4436.035121
4417.706831
4443.829885
4416.975498
4435.179968
4419.921842
4465.147445
4396.261899
4522.960257
4379.058863
4481.111446
4432.716669
4413.166257
4395.927269
4408.998099
4436.702743
4455.102078
4421.185219
4417.787651
4404.288826
4411.262947
4435.304091
4428.168267
4423.170880
4436.188544
4436.898933
4407.454627
4438.525806
4420.279778
4423.804537
4396.446058
4463.545952
4389.792238
4434.642178
4407.168678
4435.386236
4432.521680
4459.268960
4440.941316
4453.159507
4446.613303
4414.597458
4392.112811
4436.991930
4460.408404
4427.702517
4422.243905
4386.980323
4435.650586
4451.500465
4435.134195
4438.707166
4414.772033
4428.561274
4432.814276
4429.078246
4406.220428
4431.945872
4441.359711
4418.531202
4458.179691
4427.647934
4425.708115
4420.127208
4438.792997
4428.697562
4442.181586
4460.363581
4387.722840
4448.234345
4452.250084
4365.050677
4462.886934
4418.740959
4429.583312
4413.953245
4437.656340
4431.899463
4393.019506
4443.762996
4436.540025
4407.987173
4434.052394
4439.309101
4436.674098
4432.881078
4416.642642
4430.034918
4430.994609
4420.116736
4438.224031
4434.743562
4452.188447
4438.267553
4441.626527
4393.484968
4420.376097
4458.183113
4415.471272
4379.134366
4442.650335
4439.329348
4430.057398
4429.050417
4415.255298
4428.061728
4419.799574
4432.738459
4492.974864
4399.327663
4390.924243
4433.756526
4448.087433
4426.825718
4413.459036
4429.044959
4425.396004
4432.327746
4445.063362
4414.674675
4431.118654
4438.921853
4412.408091
4433.257394
4402.602084
4439.869479
4445.145990
4417.818674
4390.403156
4448.683835
4453.350281
4414.433406
4468.893801
4414.514278
4437.957718
4418.727077
4421.873553
4433.144219
4423.620703
4450.428216
4466.951673
4376.837094
4403.186657
4466.742909
4450.613406
4423.930744
4423.193726
4434.883311
4444.004176
4403.038681
4446.705950
4426.792456
4417.043712
4443.241866
4424.881358
4449.777314
4398.752103
4441.923733
4409.780543
4453.001766
4411.000692
4432.969770
4472.272579
4388.130746
4458.152803
4408.720102
4414.010419
4437.916177
4437.256604
4414.981061
4387.259398
4412.097416
4448.097022
4461.905736
4412.609816
4423.059999
4454.151340
4431.054065
4429.255534
4417.850489
4440.802761
4446.515868
4401.339694
4434.231641
4434.638205
4402.443593
4457.707698
4402.716080
4421.136732
4444.808562
4452.682687
4429.187773
4373.071786
4440.362391
4383.805987
4437.739383
4433.299825
4395.084860
4438.162714
4411.344529
4426.143896
4455.756677
4448.411774
4419.689340
4342.353404
4460.332886
4386.860772
4417.126168
4436.768252
4438.053015
4428.413692
4434.231461
4410.861910
4458.664719
4442.712446
4398.687690
4457.316770
4419.248944
4430.619214
4389.595477
4419.133318
4452.939592
4389.716297
4450.434446
4396.389004
4463.292767
4489.767424
4419.804690
4438.692548
4435.061515
4422.067984
4419.243086
4406.212785
4438.411855
4454.361576
4465.786611
4470.122481
4497.748886
4454.759217
4434.132699
4433.359171
4426.024412
4424.505404
4441.070653
4424.005370
4416.219906
4421.978657
4451.167841
4386.338465
4455.243000
4427.587348
4445.480941
4421.820291
4455.621626
4376.721978
4425.965252
4494.092990
4579.117021
4386.002520
4373.143888
4421.515340
4422.097814
4439.795825
4457.956009
4393.143576
4445.306014
4425.442598
4403.888368
4404.392588
4449.446560
4431.872253
4430.558488
4444.775272
4423.655309
4429.576846
4393.738932
4448.059749
4453.688449
4398.537596
4431.323736
4418.889288
4441.658582
4439.267106
4401.814083
4450.851089
4406.781994
4503.107505
4347.748385
4336.647143
4470.018791
4394.770932
4412.912886
4441.846875
4427.421890
4487.771791
4444.123129
4442.881194
4429.566600
4400.199746
4423.003851
4412.542491
4437.681824
4425.086970
4431.569145
4417.992724
4439.418685
4453.207475
4398.746078
4410.819139
4409.856122
4472.536759
4425.845669
4408.950008
4415.954996
4427.359569
4437.708476
4442.018176
4408.754018
4480.999415
4469.156725
4423.294044
4409.940846
4428.592825
4454.791302
4399.412345
4382.421288
4465.685644
4458.847511
4422.130477
4403.576136
4431.359471
4429.858605
4438.250644
4422.433831
4439.005739
4446.688971
4410.752711
4424.956998
4430.062076
4444.645824
4434.124851
4395.659895
4448.595550
4404.139702
4451.347802
4439.876100
4408.791469
4431.211775
4396.405758
4487.504224
4372.663898
4383.416853
4422.119108
4420.630266
4438.712487
4427.557181
4410.104466
4468.853317
4445.008973
4401.895002
4465.609143
4430.417305
4440.297778
4424.313358
4436.911603
4425.941765
4421.618725
4442.769835
4424.645739
4435.433138
4393.674696
4444.560596
4460.112948
4423.635450
4432.349807
4412.493815
4432.508191
4404.261839
4453.486581
4364.438947
4445.396100
4412.937663
4441.111008
4393.883481
4430.425833
4435.351037
4447.850734
4443.099424
4408.050605
4481.756579
4476.940722
4411.681311
4414.030561
4419.749507
4426.346161
4429.443261
4425.730356
4414.780383
4454.146935
4402.340920
4442.822619
4453.942715
4411.851487
4384.782011
4428.686230
4430.758486
4400.649701
4443.885592
4413.220143
4451.447005
4376.287097
4473.224194
4416.113918
4547.925861
4382.089719
4468.517108
4422.404490
4440.301136
4442.658039
4375.576613
4459.946431
4388.756716
4411.134985
4414.421432
4420.513987
4435.784214
4425.147324
4435.542369
4441.788956
4406.361407
4454.375325
4416.747537
4405.921061
4439.195192
4433.467606
4451.724446
4428.376370
4429.844217
4433.032132
4423.265266
4456.514256
4460.357951
4475.590050
4407.229944
4382.750640
4433.082361
4413.047334
4427.733947
4456.487127
4429.716153
4413.879843
4430.165304
4450.270289
4457.228027
4421.847418
4409.969998
4432.514199
4428.220836
4423.054263
4430.932802
4424.904470
4446.156267
4403.019700
4439.665501
4423.835336
4402.557941
4410.175892
4415.004108
4446.325290
4442.236951
4388.238659
4450.477715
4427.589143
4399.924073
4395.635208
4463.720887
4417.277291
4446.452754
4418.425172
4425.506869
4424.551358
4396.599298
4370.561366
4450.700297
4354.782357
4425.886735
4443.973172
4422.288660
4440.084968
4432.199459
4429.744629
4434.277414
4402.665237
4437.541566
4438.268952
4394.738515
4462.918397
4406.237374
4449.147667
4465.212145
4384.230963
4389.571365
4449.547495
4430.505510
4391.903911
4448.065085
4450.160199
4425.658686
4423.938596
4418.491293
4469.060808
4426.568641
4445.024182
4480.388845
4343.428449
4487.488134
4385.561230
4420.975976
4429.526270
4430.925837
4420.138288
4429.628523
4427.687419
4438.898714
4431.678313
4404.007861
4419.424138
4443.844571
4388.545742
4437.818591
4419.489105
4431.002706
4438.890647
4426.426375
4425.497408
4459.188407
4406.816711
4427.200743
4422.194898
4412.248903
4451.577108
4391.229846
4447.715392
4465.981422
4426.113433
4381.222834
4443.357770
4443.078524
4443.853012
4428.865977
4429.753187
4428.807034
4442.661878
4414.003808
4427.891577
4398.819196
4454.966531
4436.892300
4397.077267
4445.608939
4426.580336
4440.065006
4430.742650
4382.273619
4462.697998
4393.671460
4455.784073
4443.418630
4475.482741
4418.274115
4418.748237
4449.155381
4422.960405
4463.637710
4451.235872
4436.852796
4462.124417
4422.632727
4421.266363
4436.053247
4429.133119
4440.038678
4415.409124
4435.265639
4417.385412
4440.445257
4436.576620
4401.095534
4429.417802
4429.193287
4472.624707
4462.494242
4432.775156
4423.348149
4462.704020
4450.403423
4397.215672
4451.314198
4352.730945
4428.831691
4429.323268
4411.754079
4449.106844
4427.095225
4424.845288
4394.495081
4439.853367
4420.161381
4444.987217
4409.541420
4421.334283
4423.979256
4439.192560
4414.642903
4438.660543
4432.811364
4412.841523
4426.390375
4441.641255
4422.290099
4453.477066
4374.328642
4481.817794
4378.233907
4384.745564
4386.108605
4464.610422
4423.580829
4465.397245
4419.329554
4430.672826
4424.653015
4441.034431
4425.567394
4380.449348
4419.697074
4433.584584
4422.068453
4407.098008
4481.423694
4408.105741
4444.890373
4424.494420
4432.990719
4431.065742
4424.785359
4424.969830
4458.561924
4402.767726
4441.418722
4395.408709
4448.212203
4427.872121
4389.714732
4444.883523
4442.474663
4425.774847
4469.251362
4402.033124
4470.576240
4415.879355
4442.342216
4413.897106
4424.142364
4431.735037
4430.386196
4410.122660
4438.111181
4407.111347
4456.038242
4399.975229
4398.050319
4433.044079
4434.057918
4424.878049
4427.251661
4445.867617
4414.758813
4440.752764
4414.704204
4438.987319
4421.659495
4410.912999
4430.022814
4450.910872
4426.091124
4427.754076
4380.983544
4449.100589
4387.235511
4455.800548
4425.589443
4428.889402
4404.069239
4435.051937
4416.534432
4430.482961
4478.247330
4396.214115
4412.048115
4432.244521
4413.501852
4433.538356
4404.813877
4427.504016
4431.246104
4424.175347
4432.411219
4427.764485
4416.107369
4439.604679
4415.635910
4439.702396
4446.088304
4401.882209
4442.957052
4421.371215
4404.060731
4439.468435
4439.993047
4415.793886
4367.854408
4385.615416
4469.408501
4431.582603
4410.165811
4411.059495
4410.627356
4449.373936
4448.099634
4415.334838
4464.604511
4410.296464
4420.459326
4449.628788
4431.384385
4436.379849
4427.909797
4415.851571
4450.997191
4417.217915
4437.378742
4439.150071
4398.292330
4433.878499
4447.258918
4399.059960
4443.063099
4456.757240
4412.058114
4397.901045
4418.536730
4492.402523
4461.234990
4435.956029
4440.347925
4438.534305
4444.421242
4419.388524
4425.720856
4422.956379
4440.966233
4435.245707
4446.393876
4413.424996
4434.358783
4430.232824
4421.001101
4436.988986
4445.618863
4415.912189
4434.840591
4410.518564
4439.081013
4444.694877
4411.202474
4439.949360
4439.295104
4430.990750
4407.702980
4453.649489
4459.268505
4388.615736
4450.372224
4389.242555
4385.848775
4426.227990
4436.537328
4420.351223
4384.407189
4461.107351
4397.188233
4429.036101
4415.512016
4466.280880
4351.585621
4418.648712
4437.633607
4436.133075
4424.688612
4427.880243
4422.358905
4459.368242
4431.106441
4407.544986
4430.758369
4444.081694
4416.951012
4420.613687
4425.049147
4460.565861
4423.240068
4424.397596
4404.688958
4395.250149
4464.950294
4460.192905
4445.404618
4401.595155
4409.146169
4415.002817
4443.880973
4444.312356
4379.836867
4459.138453
4417.564167
4470.644830
4415.925507
4430.313544
4430.385027
4426.570997
4427.167422
4442.157754
4393.106833
4436.321207
4454.104480
4397.768126
4435.543269
4421.214291
4455.444939
4421.177689
4431.579168
4408.531654
4437.692401
4462.256105
4456.535316
4330.073551
4473.452782
4459.454437
4430.999409
4480.811581
4431.405580
4455.788435
4464.597728
4421.708127
4401.004502
4404.516632
4399.501324
4438.315018
4427.630119
4429.030131
4437.203640
4407.329569
4443.764705
4446.499747
4433.663234
4412.487929
4430.874763
4437.008076
4392.953347
4446.323256
4397.410688
4452.342221
4390.965744
4454.847429
4375.465974
4451.504588
4323.716981
4494.436801
4435.869231
4422.180943
4417.968313
4495.932286
4412.466368
4440.177809
4421.869984
4471.845817
4374.629435
4429.840763
4450.789265
4440.017217
4426.433455
4427.461526
4437.516037
4404.312100
4422.547682
4415.348937
4438.775567
4428.579897
4415.851876
4442.564267
4425.046718
4396.431811
4471.177542
4394.334713
4461.915981
4385.839754
4473.297691
4456.406216
4505.854460
4422.572271
4416.864063
4369.699742
4433.090497
4397.396033
4435.076204
4467.217907
4450.404500
4450.627661
4361.548082
4455.640523
4428.438281
4421.495121
4429.010483
4441.522381
4416.246938
4439.117631
4430.166602
4407.757510
4414.026847
4427.133681
4419.978182
4438.861254
4432.103909
4400.500928
4459.569170
4412.809289
4430.813444
4435.083786
4434.772517
4502.977311
4443.490253
4430.763675
4441.076711
4414.461546
4402.418544
4448.160900
4407.789988
4434.495034
4445.757338
4439.552967
4414.070137
4417.264194
4443.178092
4439.519177
4398.064035
4433.391240
4405.402024
4420.028788
4436.610078
4432.591989
4415.789129
4443.512771
4452.051863
4407.895928
4397.295162
4410.073201
4419.698242
4443.584786
4409.215612
4405.262103
4428.926773
4392.073616
4416.349313
4422.555357
4429.728452
4387.728861
4440.299223
4368.835726
4396.963117
4488.641064
4474.101564
4417.028789
4425.570232
4431.640068
4401.544855
4456.809426
4447.616020
4438.277944
4418.998626
4434.752126
4410.740381
4420.785184
4471.217502
4423.723394
4430.832386
4444.403582
4435.625955
4465.634074
4390.454732
4448.640317
4425.516011
4450.694443
4429.225104
4436.075547
4424.344043
4437.341899
4443.930822
4478.077469
4482.563904
4438.731229
4372.005829
4432.054138
4396.593604
4428.318214
4431.832600
4435.169951
4429.395270
4382.286138
4447.607281
4424.008587
4423.563917
4446.697740
4442.279858
4418.635543
4425.179091
4405.869221
4431.555204
4426.730914
4433.366043
4437.510689
4402.066935
4443.848903
4446.186140
4426.839971
4440.355908
4421.920531
4406.163977
4443.821327
4455.376132
4419.711137
4513.304249
4371.493486
4433.401855
4430.001736
4432.650382
4423.677201
4433.053639
4413.151126
4442.868777
4449.970075
4400.698843
4432.967399
4435.171518
4424.956177
4407.885131
4447.702528
4411.247491
4427.052697
4414.151064
4437.228701
4400.168561
4424.781415
4434.560381
4446.377186
4439.845066
4409.345994
4479.603711
4437.382447
4462.001516
4428.896404
4456.554128
4431.948672
4344.015311
4396.295003
4409.722459
4425.401775
4416.687716
4428.815358
4432.466746
4426.391523
4373.186887
4447.448715
4450.239651
4402.928835
4402.892979
4436.970473
4423.156409
4427.483861
4416.398626
4438.157492
4417.371499
4474.873967
4379.028107
4425.792250
4436.908015
4425.814933
4424.116821
4439.845823
4386.512978
4422.272452
4470.113324
4430.443727
4383.293408
4451.241574
4477.692778
4411.998219
4420.605186
4437.840840
4427.382737
4418.637972
4428.879341
4435.674004
4457.129167
4435.902291
4452.905218
4431.897494
4401.142648
4439.767047
4451.468094
4427.405273
4401.677496
4452.026067
4396.143441
4408.559355
4377.301110
4425.757008
4434.387675
4433.859844
4421.431842
4438.857907
4423.304657
4415.784473
4392.139836
4389.809954
4477.605420
4384.097346
4424.357230
4426.555894
4426.259230
4417.379624
4427.470037
4430.619810
4404.626309
4419.268069
4385.899937
4442.687504
4405.080961
4411.452270
4433.267329
4431.739120
4434.712685
4407.544843
4435.027423
4413.803791
4445.567270
4465.595291
4448.392437
4437.330228
4430.935002
4447.952962
4441.406356
4482.011713
4440.761582
4451.527796
4460.062924
4458.810128
4418.603710
4402.750015
4424.896494
4424.454486
4437.739974
4434.973101
4415.489782
4432.849623
4437.391965
4413.791022
4418.151220
4419.561811
4457.765098
4409.078834
4416.166463
4412.391423
4437.340520
4423.802627
4412.107636
4413.900206
4378.908067
4475.734564
4450.797697
4438.041963
4392.644215
4420.805647
4389.877174
4446.534503
4422.578655
4393.125910
4426.538903
4406.679322
4412.670447
4425.623117
4428.029133
4424.040030
4412.125338
4431.436997
4444.887367
4417.487727
4423.584008
4421.506288
4444.448143
4423.419922
4442.099508
4408.103486
4445.698065
4467.489186
4399.681346
4394.172114
4472.832212
4386.945124
4439.775367
4416.529718
4402.500852
4438.817625
4416.946840
4446.544194
4438.196649
4446.495853
4389.357834
4414.539614
4429.801988
4458.566231
4427.756882
4437.266383
4421.223004
4453.497557
4424.244400
4458.516020
4464.038422
4405.535982
4419.294570
4439.961184
4433.949534
4436.594664
4423.772135
4441.235613
4452.965754
4417.683225
4435.675182
4471.620657
4422.826542
4325.932312
4402.329320
4422.309972
4420.184064
4420.888578
4424.675189
4461.438753
4419.922724
4391.178437
4418.763914
4403.272717
4370.876879
4429.694062
4433.525502
4413.493950
4423.332529
4411.577301
4413.126231
4433.031541
4428.449929
4414.938121
4404.245712
4425.090316
4431.759598
4442.021055
4403.580972
4469.103826
4381.491884
4406.761614
4462.808555
4380.979265
4544.525479
4388.534568
4429.010446
4426.251110
4429.455870
4442.909038
4443.366162
4438.652386
4440.976765
4480.553933
4428.550968
4426.625192
4431.048833
4437.000008
4431.144929
4436.234904
4420.353274
4425.842391
4399.129657
4435.360715
4443.585806
4417.656327
4417.366000
4452.296878
4406.831261
4454.981837
4443.008730
4458.949181
4433.945162
4409.147260
4424.717862
4425.828477
4490.217061
4462.774934
4463.361573
4432.894222
4461.490987
4449.878568
4460.525781
4448.948879
4452.964825
4434.692629
4477.195173
4433.554374
4427.675449
4424.781554
4431.010360
4417.719074
4445.051954
4428.162735
4426.306791
4417.495030
4442.427688
4424.635296
4434.036721
4432.703570
4456.895660
4390.362214
4445.072512
4403.430396
4408.732173
4429.925122
4447.728707
4572.551743
4461.930413
4448.816066
4468.740353
4447.943176
4437.087559
4433.016659
4380.433880
4356.766379
4334.527381
4391.155143
4429.915215
4435.171928
4426.967550
4432.896928
4429.169342
4432.226184
4445.733485
4428.049311
4402.867359
4459.868297
4428.516913
4450.480883
4442.723513
4431.386740
4439.536807
4425.232725
4406.647093
4439.136823
4407.934264
4427.568115
4450.273286
4417.490311
4442.684567
4424.822870
4456.491418
4410.565687
4346.127017
4432.169157
4479.854469
4420.136754
4456.056384
4434.304624
4425.885736
4424.652109
4418.929943
4432.979833
4407.068941
4417.382192
4416.196480
4413.072262
4399.434824
4409.865290
4439.543185
4396.303601
4408.836867
4433.594708
4441.865090
4448.635424
4439.588829
4398.468156
4414.150796
4427.863763
4440.877623
4366.259541
4473.361495
4398.319140
4421.238176
4443.245294
4444.975838
4476.367316
4399.348492
4418.703710
4429.730759
4417.194456
4429.620446
4440.559444
4433.660145
4423.932395
4432.581385
4433.636154
4433.379721
4442.260970
4427.670402
4413.464111
4440.530855
4439.573976
4436.048623
4444.716001
4420.732044
4457.280904
4477.110107
4381.242900
4430.901846
4429.927800
4436.159433
4402.339854
4437.027716
4437.866524
4445.020581
4442.348842
4442.690818
4421.566508
4391.912205
4421.197372
4445.293757
4418.167607
4410.585272
4432.104344
4423.001998
4428.656306
4433.075368
4435.381466
4447.599385
4418.943715
4437.864009
4413.637980
4435.283372
4425.650142
4436.417972
4442.694999
4461.040019