# vtk DataFile Version 2.0
mfree iwf
ASCII

DATASET UNSTRUCTURED_GRID
POINTS 6231 float
0.000000 0.000300 0.000000
0.000000 0.000310 0.000000
0.000000 0.000320 0.000000
0.000000 0.000330 0.000000
0.000000 0.000340 0.000000
0.000000 0.000350 0.000000
0.000001 0.000360 0.000000
0.000001 0.000370 0.000000
0.000001 0.000380 0.000000
0.000001 0.000390 0.000000
0.000001 0.000400 0.000000
0.000001 0.000410 0.000000
0.000001 0.000420 0.000000
0.000001 0.000430 0.000000
0.000001 0.000440 0.000000
0.000002 0.000450 0.000000
0.000002 0.000460 0.000000
0.000002 0.000471 0.000000
0.000002 0.000480 0.000000
0.000002 0.000492 0.000000
0.000006 0.000501 0.000000
0.000569 0.000831 0.000000
0.000628 0.000886 0.000000
0.000583 0.000844 0.000000
0.000640 0.000895 0.000000
0.000660 0.000905 0.000000
0.000706 0.000922 0.000000
0.000714 0.000923 0.000000
0.000727 0.000921 0.000000
0.000740 0.000922 0.000000
0.000772 0.000929 0.000000
0.000010 0.000300 0.000000
0.000010 0.000310 0.000000
0.000010 0.000320 0.000000
0.000010 0.000330 0.000000
0.000010 0.000340 0.000000
0.000010 0.000350 0.000000
0.000011 0.000360 0.000000
0.000011 0.000370 0.000000
0.000011 0.000380 0.000000
0.000011 0.000390 0.000000
0.000011 0.000400 0.000000
0.000011 0.000410 0.000000
0.000011 0.000420 0.000000
0.000011 0.000430 0.000000
0.000011 0.000440 0.000000
0.000012 0.000450 0.000000
0.000012 0.000460 0.000000
0.000012 0.000472 0.000000
0.000013 0.000478 0.000000
0.000009 0.000492 0.000000
0.000013 0.000498 0.000000
0.000679 0.000908 0.000000
0.000693 0.000912 0.000000
0.000700 0.000915 0.000000
0.000707 0.000914 0.000000
0.000724 0.000913 0.000000
0.000736 0.000914 0.000000
0.000750 0.000914 0.000000
0.000761 0.000918 0.000000
0.000767 0.000918 0.000000
0.000769 0.000925 0.000000
0.000020 0.000300 0.000000
0.000020 0.000310 0.000000
0.000020 0.000320 0.000000
0.000020 0.000330 0.000000
0.000021 0.000340 0.000000
0.000020 0.000350 0.000000
0.000021 0.000360 0.000000
0.000021 0.000370 0.000000
0.000021 0.000380 0.000000
0.000021 0.000390 0.000000
0.000021 0.000400 0.000000
0.000022 0.000410 0.000000
0.000021 0.000420 0.000000
0.000022 0.000431 0.000000
0.000020 0.000440 0.000000
0.000024 0.000451 0.000000
0.000021 0.000460 0.000000
0.000022 0.000470 0.000000
0.000021 0.000481 0.000000
0.000024 0.000494 0.000000
0.000020 0.000497 0.000000
0.000650 0.000888 0.000000
0.000676 0.000902 0.000000
0.000685 0.000906 0.000000
0.000691 0.000905 0.000000
0.000702 0.000901 0.000000
0.000716 0.000908 0.000000
0.000743 0.000909 0.000000
0.000757 0.000912 0.000000
0.000767 0.000906 0.000000
0.000775 0.000905 0.000000
0.000030 0.000300 0.000000
0.000030 0.000310 0.000000
0.000030 0.000320 0.000000
0.000031 0.000330 0.000000
0.000030 0.000340 0.000000
0.000030 0.000349 0.000000
0.000031 0.000359 0.000000
0.000030 0.000370 0.000000
0.000032 0.000380 0.000000
0.000030 0.000390 0.000000
0.000031 0.000400 0.000000
0.000031 0.000411 0.000000
0.000031 0.000420 0.000000
0.000031 0.000430 0.000000
0.000032 0.000440 0.000000
0.000030 0.000450 0.000000
0.000032 0.000459 0.000000
0.000036 0.000473 0.000000
0.000030 0.000478 0.000000
0.000033 0.000488 0.000000
0.000032 0.000497 0.000000
0.000063 0.000500 0.000000
0.000671 0.000895 0.000000
0.000688 0.000891 0.000000
0.000714 0.000899 0.000000
0.000724 0.000894 0.000000
0.000728 0.000905 0.000000
0.000735 0.000900 0.000000
0.000745 0.000899 0.000000
0.000753 0.000901 0.000000
0.000776 0.000897 0.000000
0.000040 0.000300 0.000000
0.000040 0.000310 0.000000
0.000040 0.000320 0.000000
0.000040 0.000329 0.000000
0.000040 0.000340 0.000000
0.000041 0.000351 0.000000
0.000040 0.000360 0.000000
0.000041 0.000370 0.000000
0.000041 0.000380 0.000000
0.000040 0.000390 0.000000
0.000042 0.000399 0.000000
0.000040 0.000410 0.000000
0.000043 0.000420 0.000000
0.000040 0.000431 0.000000
0.000043 0.000439 0.000000
0.000043 0.000450 0.000000
0.000043 0.000460 0.000000
0.000036 0.000469 0.000000
0.000045 0.000477 0.000000
0.000043 0.000496 0.000000
0.000040 0.000498 0.000000
0.000514 0.000665 0.000000
0.000680 0.000888 0.000000
0.000698 0.000892 0.000000
0.000706 0.000889 0.000000
0.000712 0.000896 0.000000
0.000734 0.000889 0.000000
0.000757 0.000892 0.000000
0.000759 0.000882 0.000000
0.000766 0.000896 0.000000
0.000776 0.000888 0.000000
0.000050 0.000300 0.000000
0.000050 0.000310 0.000000
0.000050 0.000320 0.000000
0.000049 0.000331 0.000000
0.000052 0.000340 0.000000
0.000050 0.000348 0.000000
0.000051 0.000359 0.000000
0.000050 0.000370 0.000000
0.000052 0.000380 0.000000
0.000050 0.000390 0.000000
0.000052 0.000400 0.000000
0.000049 0.000411 0.000000
0.000053 0.000419 0.000000
0.000051 0.000430 0.000000
0.000054 0.000440 0.000000
0.000047 0.000451 0.000000
0.000054 0.000458 0.000000
0.000053 0.000470 0.000000
0.000056 0.000482 0.000000
0.000049 0.000488 0.000000
0.000050 0.000498 0.000000
0.000665 0.000900 0.000000
0.000626 0.000877 0.000000
0.000693 0.000885 0.000000
0.000711 0.000878 0.000000
0.000725 0.000884 0.000000
0.000741 0.000888 0.000000
0.000734 0.000878 0.000000
0.000749 0.000886 0.000000
0.000766 0.000884 0.000000
0.000775 0.000877 0.000000
0.000060 0.000300 0.000000
0.000060 0.000310 0.000000
0.000060 0.000321 0.000000
0.000060 0.000329 0.000000
0.000060 0.000340 0.000000
0.000059 0.000351 0.000000
0.000063 0.000361 0.000000
0.000059 0.000369 0.000000
0.000063 0.000381 0.000000
0.000059 0.000390 0.000000
0.000063 0.000400 0.000000
0.000060 0.000409 0.000000
0.000063 0.000419 0.000000
0.000058 0.000431 0.000000
0.000065 0.000439 0.000000
0.000061 0.000449 0.000000
0.000065 0.000460 0.000000
0.000055 0.000472 0.000000
0.000065 0.000475 0.000000
0.000068 0.000486 0.000000
0.000058 0.000496 0.000000
0.000656 0.000897 0.000000
0.000671 0.000886 0.000000
0.000690 0.000873 0.000000
0.000702 0.000877 0.000000
0.000719 0.000871 0.000000
0.000727 0.000868 0.000000
0.000756 0.000871 0.000000
0.000745 0.000875 0.000000
0.000765 0.000872 0.000000
0.000774 0.000867 0.000000
0.000070 0.000300 0.000000
0.000070 0.000310 0.000000
0.000070 0.000319 0.000000
0.000070 0.000331 0.000000
0.000071 0.000340 0.000000
0.000070 0.000350 0.000000
0.000071 0.000356 0.000000
0.000068 0.000372 0.000000
0.000074 0.000376 0.000000
0.000070 0.000390 0.000000
0.000073 0.000400 0.000000
0.000068 0.000412 0.000000
0.000074 0.000421 0.000000
0.000069 0.000429 0.000000
0.000074 0.000439 0.000000
0.000066 0.000452 0.000000
0.000077 0.000458 0.000000
0.000073 0.000470 0.000000
0.000076 0.000486 0.000000
0.000068 0.000496 0.000000
0.000076 0.000496 0.000000
0.000513 0.000641 0.000000
0.000660 0.000884 0.000000
0.000683 0.000879 0.000000
0.000706 0.000863 0.000000
0.000720 0.000880 0.000000
0.000737 0.000866 0.000000
0.000746 0.000871 0.000000
0.000745 0.000858 0.000000
0.000763 0.000862 0.000000
0.000773 0.000857 0.000000
0.000080 0.000300 0.000000
0.000080 0.000310 0.000000
0.000080 0.000321 0.000000
0.000080 0.000330 0.000000
0.000080 0.000340 0.000000
0.000082 0.000352 0.000000
0.000078 0.000363 0.000000
0.000082 0.000370 0.000000
0.000079 0.000383 0.000000
0.000078 0.000391 0.000000
0.000087 0.000396 0.000000
0.000080 0.000408 0.000000
0.000084 0.000418 0.000000
0.000079 0.000430 0.000000
0.000088 0.000445 0.000000
0.000077 0.000447 0.000000
0.000086 0.000463 0.000000
0.000074 0.000470 0.000000
0.000087 0.000473 0.000000
0.000085 0.000482 0.000000
0.000084 0.000495 0.000000
0.000647 0.000892 0.000000
0.000620 0.000880 0.000000
0.000692 0.000863 0.000000
0.000702 0.000871 0.000000
0.000716 0.000862 0.000000
0.000725 0.000856 0.000000
0.000733 0.000856 0.000000
0.000754 0.000857 0.000000
0.000763 0.000853 0.000000
0.000772 0.000847 0.000000
0.000090 0.000300 0.000000
0.000090 0.000310 0.000000
0.000090 0.000320 0.000000
0.000090 0.000329 0.000000
0.000091 0.000340 0.000000
0.000090 0.000348 0.000000
0.000091 0.000359 0.000000
0.000090 0.000368 0.000000
0.000090 0.000379 0.000000
0.000092 0.000388 0.000000
0.000085 0.000406 0.000000
0.000094 0.000408 0.000000
0.000089 0.000425 0.000000
0.000096 0.000426 0.000000
0.000088 0.000436 0.000000
0.000097 0.000455 0.000000
0.000086 0.000454 0.000000
0.000097 0.000471 0.000000
0.000106 0.000480 0.000000
0.000089 0.000495 0.000000
0.000094 0.000495 0.000000
0.000516 0.000683 0.000000
0.000655 0.000878 0.000000
0.000642 0.000881 0.000000
0.000674 0.000877 0.000000
0.000706 0.000852 0.000000
0.000729 0.000848 0.000000
0.000743 0.000850 0.000000
0.000751 0.000846 0.000000
0.000761 0.000843 0.000000
0.000770 0.000838 0.000000
0.000100 0.000300 0.000000
0.000100 0.000310 0.000000
0.000100 0.000320 0.000000
0.000100 0.000331 0.000000
0.000101 0.000340 0.000000
0.000099 0.000351 0.000000
0.000102 0.000361 0.000000
0.000099 0.000372 0.000000
0.000102 0.000381 0.000000
0.000099 0.000391 0.000000
0.000101 0.000399 0.000000
0.000103 0.000408 0.000000
0.000100 0.000418 0.000000
0.000100 0.000436 0.000000
0.000110 0.000443 0.000000
0.000097 0.000445 0.000000
0.000108 0.000460 0.000000
0.000098 0.000467 0.000000
0.000095 0.000481 0.000000
0.000106 0.000491 0.000000
0.000101 0.000494 0.000000
0.000587 0.000848 0.000000
0.000594 0.000855 0.000000
0.000615 0.000875 0.000000
0.000700 0.000857 0.000000
0.000716 0.000850 0.000000
0.000721 0.000841 0.000000
0.000743 0.000840 0.000000
0.000734 0.000835 0.000000
0.000758 0.000836 0.000000
0.000768 0.000828 0.000000
0.000110 0.000300 0.000000
0.000110 0.000310 0.000000
0.000110 0.000321 0.000000
0.000110 0.000329 0.000000
0.000110 0.000339 0.000000
0.000111 0.000350 0.000000
0.000109 0.000358 0.000000
0.000112 0.000369 0.000000
0.000110 0.000378 0.000000
0.000111 0.000389 0.000000
0.000111 0.000400 0.000000
0.000110 0.000413 0.000000
0.000115 0.000422 0.000000
0.000107 0.000427 0.000000
0.000112 0.000433 0.000000
0.000106 0.000450 0.000000
0.000115 0.000461 0.000000
0.000111 0.000471 0.000000
0.000116 0.000480 0.000000
0.000111 0.000493 0.000000
0.000119 0.000492 0.000000
0.000547 0.000790 0.000000
0.000520 0.000704 0.000000
0.000650 0.000872 0.000000
0.000675 0.000866 0.000000
0.000665 0.000860 0.000000
[...]
POINT_DATA 6231
SCALARS density float 1
LOOKUP_TABLE default
4410.091353
4424.562341
4420.697921
4423.042614
4427.599668
4427.509226
4422.302863
4422.513468
4428.608631
4429.317029
4426.766596
4430.447657
4426.595260
4430.202873
4432.060529
4441.489015
4423.728683
4431.050852
4412.741836
4424.151538
4411.252920
4424.595918
4425.032641
4432.382438
4440.971895
4418.158174
4401.535220
4433.813344
4449.812476
4452.659842
4420.062659
4412.441871
4419.589606
4429.578751
4426.190818
4422.046911
4422.815127
4426.747461
4432.165678
4426.985515
4429.704675
4423.177519
4434.851918
4425.796147
4437.527869
4416.578882
4424.318014
4409.722644
4446.633592
4461.056422
4459.986209
4416.520647
4408.916917
4408.577775
4430.023611
4503.096294
4394.390257
4402.622717
4425.594729
4412.015875
4461.778681
4449.322352
4416.580573
4431.282935
4425.862223
4417.537655
4431.586404
4425.880202
4425.022451
4434.715198
4412.363456
4435.094304
4426.398053
4430.791243
4419.762650
4438.503500
4411.949821
4481.814813
4399.551431
4451.313335
4351.979099
4449.382331
4420.945376
4421.733361
4428.168468
4412.724872
4521.507162
4330.338327
4365.902700
4422.904955
4414.395768
4411.893564
4401.214625
4426.169436
4429.647562
4417.214894
4434.980833
4435.516207
4431.118290
4426.090809
4422.434601
4432.090948
4436.801278
4411.125522
4440.462946
4414.235324
4448.840828
4400.429961
4435.180764
4385.063181
4458.624517
4369.203782
4556.128908
4370.304602
4430.357719
4456.845694
4423.670565
4488.697213
4344.553401
4491.612358
4463.490436
4395.094721
4493.137183
4448.121177
4431.725467
4424.400633
4434.026404
4442.483370
4409.322870
4430.095239
4434.062906
4433.340488
4426.702071
4425.673495
4414.510375
4454.176478
4405.221399
4443.955787
4415.574409
4446.011435
4390.721435
4509.856024
4308.245102
4419.830753
4383.690851
4433.168591
4422.051942
4417.559347
4430.368888
4475.299741
4437.145499
4400.230456
4490.551135
4429.344287
4419.120601
4424.653037
4424.053733
4430.640145
4415.914421
4444.870597
4454.796170
4407.036243
4435.424038
4411.477453
4443.906237
4429.128575
4422.100809
4418.637910
4453.656755
4375.912813
4481.674210
4361.718684
4474.753566
4359.568702
4536.486038
4382.594628
4446.571678
4427.703676
4452.857358
4407.401418
4438.997313
4440.620187
4390.582326
4388.004185
4411.291965
4415.895957
4424.284442
4442.787022
4426.723225
4438.356523
4421.524550
4415.509320
4431.230306
4447.809030
4414.082556
4436.657449
4419.536593
4445.761554
4421.745444
4425.207735
4421.655727
4462.682341
4407.317909
4517.644806
4377.730598
4483.364172
4432.204636
4418.089450
4393.908877
4412.115054
4464.783583
4462.768186
4428.424489
4398.805625
4431.206638
4423.030273
4427.526506
4430.658876
4429.944498
4403.885568
4444.818227
4420.372982
4445.317773
4446.452174
4416.200443
4424.103124
4448.394837
4390.405692
4423.376765
4409.301713
4444.109373
4432.780095
4451.806590
4440.359391
4449.430940
4447.985858
4411.685651
4389.361722
4533.361604
4452.863441
4443.596985
4452.235863
4428.110643
4421.978328
4468.837334
4433.573543
4452.446635
4412.731007
4423.548139
4429.345527
4436.548041
4419.682124
4411.240261
4420.802962
4402.823318
4441.371411
4435.332946
4429.404351
4412.484828
4444.592652
4406.617427
4439.492971
4473.129066
4392.020869
4457.871024
4449.538017
4363.294062
4465.448818
4414.548446
4432.490586
4415.405924
4421.419762
4435.586230
4382.064174
4454.487621
4429.892840
4403.799502
4437.285356
4434.683432
4427.045278
4424.120502
4434.258094
4413.569642
4436.976375
4446.971888
4409.109243
4456.431684
4402.848828
4440.043375
4456.585982
4389.124368
4430.405716
4464.081460
4414.494120
4385.011872
4433.140818
4434.836288
4430.169503
4425.955067
4415.338244
4420.715659
4437.040859
4425.811775
4472.926289
4413.331912
4387.017813
4446.466849
4444.756798
4429.619078
4418.149720
4430.279585
4426.463221
4424.561035
4439.509831
4416.001205
4417.597137
4437.941027
4403.703079
4442.460157
4433.292621
4427.199233
4453.752334
4419.508990
4381.691746
4454.404483
4446.901095
4419.600401
4461.930226
4412.375080
4437.751840
4418.015834
4425.090947
4433.589155
4421.869069
4429.611167
4467.239104
4382.159724
4394.922195
4472.547508
4443.803902
4423.239338
4425.119792
4440.707935
4428.752701
4428.921182
4432.611637
4425.099078
4442.510657
4427.227777
4443.307781
4415.184046
4417.763624
4451.747952
4392.381193
4444.319704
4428.993010
4429.223752
4465.407212
4391.942302
4457.910736
4402.103445
4411.526254
4430.056435
4433.300893
4433.514248
4399.592305
4426.135995
4463.485907
4459.410177
4414.568968
4423.857099
4451.581858
4432.660610
4427.022286
4421.215273
4424.707466
4432.555372
4425.927937
4403.876969
4445.751551
4399.948765
4451.293434
4442.851356
4402.133229
4448.747169
4428.348817
4436.661917
4371.279276
4439.270020
4389.961251
4434.475575
4432.027248
4392.744596
4442.332515
4417.540885
4427.899345
4452.320391
4448.202543
4401.974963
4334.670979
4464.398306
4387.234792
4415.357773
4436.935178
4432.850609
4435.396732
4446.417350
4412.080557
4434.451051
4433.566601
4428.211254
4429.714964
4410.842372
4416.502732
4418.113089
4440.867276
4435.266910
4404.746558
4444.915711
4395.858351
4459.238924
4494.418351
4417.469343
4434.562523
4433.454319
4412.183040
4416.316564
4423.149715
4432.834427
4428.307613
4480.303569
4479.625353
4482.771931
4451.609754
4435.022858
4436.554531
4425.451724
4412.179363
4439.278234
4421.285648
4426.520406
4408.313164
4452.683815
4414.854115
4431.921254
4451.342577
4409.086266
4427.374887
4430.288839
4388.015690
4416.331968
4504.976496
4568.285852
4386.033020
4375.342180
4420.521368
4416.813804
4457.531687
4463.181248
4390.044115
4447.358488
4410.038679
4406.710015
4405.491523
4447.844173
4434.567086
4432.853700
4436.235634
4440.507553
4432.142262
4413.212226
4432.001248
4451.274123
4410.048119
4418.226663
4437.142571
4421.241882
4447.943684
4426.551974
4446.254110
4411.223295
4495.010943
4357.289494
4330.580875
4478.334938
4394.134150
4412.796938
4435.826559
4425.639651
4492.675048
4443.075004
4409.941522
4434.382292
4396.474415
4422.562629
4411.662300
4433.503296
4425.858521
4431.417953
4413.149438
4437.473672
4431.540334
4414.909819
4421.210399
4441.786362
4437.890963
4424.279466
4411.419501
4443.800115
4385.450204
4433.771173
4443.646651
4391.340380
4481.670532
4479.009589
4420.347259
4406.133623
4424.776990
4446.184907
4418.194150
4370.318035
4455.369101
4451.094967
4410.897942
4399.261595
4435.038144
4427.903843
4433.934286
4431.482195
4438.647008
4436.407238
4437.313670
4421.118053
4436.909859
4434.769524
4414.101065
4409.357636
4450.578539
4428.445782
4414.946729
4461.749646
4412.664521
4442.013727
4379.376761
4489.787952
4352.907151
4369.610148
4424.043617
4428.535243
4440.078011
4440.014804
4393.997207
4437.443872
4412.765239
4447.980975
4460.289051
4427.838937
4433.202963
4435.221560
4427.687881
4421.178798
4432.097503
4429.856334
4431.523184
4431.060619
4412.608900
4438.768458
4453.552688
4409.838321
4428.538899
4426.635236
4425.757851
4392.989308
4459.556684
4357.312226
4461.349309
4403.485988
4444.833061
4387.178726
4430.893765
4429.594762
4444.340583
4457.134016
4408.426046
4465.527677
4456.403177
4411.627390
4423.670181
4421.791371
4430.693735
4422.381691
4440.752916
4435.591960
4427.186756
4439.388213
4425.244211
4439.947007
4408.980931
4411.629943
4427.490166
4452.523964
4402.990776
4439.980915
4427.952678
4456.987727
4388.758221
4450.829258
4434.823851
4584.248568
4369.742710
4481.464837
4437.408832
4437.179898
4432.561423
4396.068491
4455.649000
4404.754593
4422.858403
4441.436469
4401.918828
4429.259088
4431.908929
4429.469708
4414.006954
4435.006889
4424.354907
4423.233375
4431.349447
4422.375525
4441.447751
4420.192509
4408.116224
4426.554602
4419.905761
4406.280134
4462.422520
4457.521534
4470.988530
4361.682116
4377.305435
4516.448152
4408.311401
4428.554654
4454.771630
4437.343064
4379.009326
4420.243813
4442.906424
4461.174782
4408.286073
4393.943361
4429.824880
4433.871082
4426.208717
4436.489719
4441.488397
4420.020782
4430.964496
4415.585168
4417.532451
4431.873065
4415.654717
4434.736692
4461.066532
4429.987445
4412.818629
4439.452592
4421.851032
4444.041164
4398.015368
4459.552441
4410.233519
4445.530551
4413.907123
4424.291844
4435.933802
4426.701291
4402.765325
4455.855081
4354.483014
4406.083132
4451.869738
4429.954098
4428.244465
4428.910328
4429.075637
4409.421067
4432.230699
4418.977987
4443.549232
4430.666243
4424.387508
4423.284769
4394.397647
4464.738340
4396.018893
4401.968480
4453.541572
4380.257673
4401.411344
4436.263599
4445.750097
4421.928984
4424.744595
4441.486505
4435.716579
4412.445568
4439.064123
4483.857059
4375.021725
4499.941303
4347.134180
4444.441014
4430.789857
4430.081985
4431.101180
4430.503817
4432.280789
4446.952354
4409.870188
4408.548002
4397.582765
4441.784818
4413.444400
4437.262163
4450.423298
4444.574624
4437.083463
4416.705610
4441.316808
4422.629168
4400.513411
4445.297097
4421.206855
4422.494176
4470.001478
4396.303531
4437.319238
4469.022931
4442.798597
4370.598818
4456.806324
4441.201836
4451.516847
4428.043659
4427.556787
4426.902076
4423.732199
4415.742949
4414.094150
4437.526834
4438.529760
4429.391839
4430.525773
4403.266382
4435.128256
4400.234141
4415.688194
4401.720567
4413.190554
4408.601501
4457.582450
4439.731552
4492.007918
4406.198289
4413.386571
4448.047500
4392.456209
4437.283497
4442.547641
4449.787593
4447.938030
4449.664726
4429.850858
4454.179683
4429.250976
4429.961419
4428.168369
4433.178288
4433.444464
4437.465320
4409.631676
4398.565515
4423.303123
4425.262563
4436.170606
4443.193893
4435.049247
4428.849234
4434.662761
4455.183673
4389.214767
4465.309175
4362.648425
4410.597088
4432.565216
4406.889733
4453.005020
4436.167724
4415.294079
4401.337405
4428.689717
4424.252977
4404.177516
4415.044714
4414.733471
4422.725203
4433.702671
4423.423976
4421.627889
4407.787563
4427.236475
4427.113930
4441.450536
4439.648163
4403.772513
4418.895810
4418.762508
4421.162868
4427.005849
4418.348541
4424.908920
4429.550886
4469.431667
4404.524732
4449.318760
4424.663297
4517.880510
4413.900919
4368.321555
4452.291645
4454.108723
4420.855139
4426.950711
4495.969064
4405.252411
4445.817334
4427.544048
4436.350514
4420.711548
4436.702015
4445.727300
4423.750087
4430.185786
4405.440415
4406.276321
4444.271198
4425.626388
4441.585148
4406.483200
4446.076702
4395.876703
4466.587542
4390.588241
4476.513271
4400.916844
4429.223363
4419.566458
4420.045049
4424.727670
4432.059982
4456.670366
4419.310707
4427.005238
4434.865438
4414.083581
4383.633575
4432.851062
4429.254121
4427.360699
4426.399387
4422.044304
4416.800023
4435.376726
4425.321753
4441.164710
4432.315989
4423.804665
4393.639126
4446.104886
4420.192096
4452.881837
4434.006901
4422.652555
4399.947416
4450.641149
4433.183106
4431.498155
4407.866843
4400.028991
4420.780982
4425.003895
4480.062091
4395.030477
4427.880031
4431.041105
4370.709392
4434.254392
4408.755702
4425.761763
4424.276437
4435.738143
4437.103155
4435.302312
4437.325103
4406.314336
4437.803984
4397.500796
4429.959105
4455.347362
4412.128126
4437.084380
4393.771423
4449.673341
4430.098405
4410.544446
4356.904681
4384.854498
4463.483608
4441.401194
4406.824816
4403.791326
4398.011814
4465.565806
4400.305255
4413.680112
4458.290894
4449.510272
4427.118003
4457.137163
4435.304800
4434.239179
4421.512349
4419.944668
4419.053223
4429.401873
4439.011166
4415.517005
4440.553821
4414.155008
4415.998589
4418.704813
4441.228560
4429.149620
4429.858830
4428.789651
4419.264067
4485.095738
4461.393657
4436.891756
4445.394107
4510.933265
4422.986998
4419.272545
4442.105311
4435.664220
4412.152072
4433.957393
4417.848266
4419.862341
4410.809102
4425.763858
4428.381990
4432.989022
4443.289016
4440.804645
4422.918560
4436.166438
4406.631576
4446.276801
4425.986186
4423.344727
4424.956857
4421.306479
4420.528873
4422.249092
4437.950798
4395.332162
4439.967083
4387.916667
4380.645026
4431.867907
4434.003546
4465.117546
4466.608170
4483.322059
4403.186622
4412.033864
4423.344386
4478.482237
4350.322267
4424.340494
4430.236818
4429.581899
4433.402594
4404.280303
4434.928540
4436.417498
4411.875753
4446.246541
4399.496939
4419.344947
4453.751841
4417.483963
4428.897406
4445.725398
4427.333835
4439.425767
4415.525532
4381.410302
4468.519334
4463.867181
4447.755156
4401.018640
4412.902873
4457.948190
4390.901384
4432.347901
4383.599382
4474.416628
4429.192996
4453.095452
4420.919910
4441.025103
4429.945280
4427.505638
4442.555149
4437.530646
4418.322849
4411.526986
4426.402207
4424.526829
4446.998399
4386.791747
4454.642354
4411.743596
4425.197516
4385.448418
4434.160052
4451.746090
4464.336680
4346.001454
4470.919657
4459.972636
4463.448799
4487.791995
4432.188368
4456.634311
4427.848930
4442.471911
4443.424453
4393.973086
4394.830056
4436.398018
4431.750598
4426.920281
4422.374892
4417.384320
4414.616822
4448.679473
4394.810670
4434.800153
4395.515071
4443.983396
4406.304559
4448.504606
4393.227729
4458.591209
4420.848292
4427.666577
4383.590073
4446.959855
4310.098930
4499.549286
4558.466998
4422.413640
4401.286925
4484.012806
4397.241586
4406.137235
4407.223878
4470.629019
4344.540788
4454.392255
4445.788909
4427.962042
4436.538283
4433.327879
4428.469078
4436.068392
4433.343254
4426.634927
4433.362950
4451.314613
4408.225950
4398.749720
4413.664794
4443.036060
4420.261634
4401.342872
4457.490537
4386.824194
4451.156544
4454.805671
4505.456852
4429.813031
4423.010313
4369.664801
4422.706664
4403.309182
4421.388227
4438.631361
4473.561704
4428.192369
4376.295880
4452.535723
4421.092392
4429.757246
4422.079638
4426.345900
4409.087329
4435.800281
4426.147006
4404.552743
4388.489463
4451.559767
4446.110125
4432.304906
4409.890892
4439.341134
4439.391190
4430.838649
4442.127974
4446.725810
4442.655322
4471.849574
4631.163998
4465.085359
4549.645171
4431.418270
4430.816149
4420.445908
4376.016014
4429.245483
4476.304034
4423.822448
4416.382112
4424.644489
4437.794655
4423.899352
4436.724763
4420.278543
4425.713055
4436.838705
4461.673976
4431.986318
4413.698613
4391.286256
4408.410309
4442.363530
4433.919704
4388.110077
4428.060419
4413.194051
4409.329227
4421.529967
4424.770391
4399.233231
4424.703409
4425.801140
4435.672711
4467.877723
4471.845801
4363.269386
4394.371708
4494.956483
4478.734341
4408.417707
4423.993904
4432.539320
4399.139409
4430.374105
4420.590924
4433.294806
4397.529100
4447.051776
4412.267593
4449.665763
4427.639536
4443.409173
4421.197080
4446.550445
4441.112571
4443.759579
4399.977698
4428.138497
4464.828794
4456.309628
4423.223380
4452.128535
4374.546817
4487.878136
4433.439596
4449.139709
4486.830248
4435.689472
4358.869356
4404.729437
4393.573218
4421.545988
4419.630016
4441.276639
4439.920886
4417.392951
4430.394427
4423.379998
4418.829123
4409.633184
4429.769820
4407.693453
4421.785168
4417.952191
4415.571992
4428.469135
4420.145712
4444.900349
4352.857944
4443.656408
4490.640163
4405.478253
4470.000788
4454.654584
4397.963539
4437.656464
4469.013371
4396.583744
4509.226129
4370.116527
4467.621993
4405.086307
4423.540894
4428.380917
4416.940012
4412.709823
4434.623482
4412.713491
4407.916198
4435.955006
4428.197106
4429.809236
4413.505757
4421.544015
4396.707224
4428.051740
4419.529166
4441.119173
4406.657774
4402.693330
4436.064183
4420.065936
4447.090580
4420.805806
4462.629253
4380.962025
4463.521934
4430.568989
4467.393831
4448.760901
4363.603017
4388.935009
4419.869525
4423.661558
4427.129073
4429.677026
4430.085147
4438.639343
4408.791282
4460.123887
4426.895564
4429.536122
4417.087734
4416.850907
4456.996567
4402.383547
4411.170430
4429.934457
4426.048847
4457.222564
4395.807981
4438.772312
4452.731794
4408.717341
4431.816091
4476.438192
4396.921130
4359.542790
4492.256776
4443.886003
4391.478448
4470.041751
4466.376132
4416.217662
4424.586540
4421.017987
4417.582987
4424.054326
4419.227774
4442.699393
4395.321813
4433.294219
4420.175390
4422.649038
4390.112470
4436.527137
4442.993009
4431.090318
4405.439972
4440.303730
4406.961365
4423.339639
4399.621975
4431.439140
4412.250031
4504.512078
4453.456716
4479.586354
4464.668433
4445.032770
4419.013596
4385.370763
4465.187529
4362.809377
4416.097330
4420.322083
4420.773782
4437.123218
4427.912406
4413.462360
4439.040481
4432.764859
4421.773222
4423.086560
4426.971714
4404.196019
4422.411761
4412.375531
4418.223520
4416.905998
4423.683610
4391.830752
4463.277427
4424.831138
4488.971449
4435.014795
4392.591216
4466.304559
4442.967074
4470.067659
4433.353814
4456.885087
4454.567742
4477.827997
4414.541864
4402.697610
4418.325826
4426.927752
4410.812808
4416.946313
4438.980251
4395.598503
4426.176707
4432.869066
4431.088622
4426.424240
4420.629970
4422.195910
4415.557450
4422.020909
4447.829004
4376.291282
4428.045226
4402.402038
4364.632737
4427.600083
4441.915523
4423.383215
4514.869284
4452.290025
4458.872547
4426.004509
4462.265535
4428.375084
4462.342535
4440.146225
4414.441267
4420.036517
4426.513556
4433.304418
4413.287238
4439.016897
4429.104693
4412.031723
4401.625358
4422.724445
4445.576003
4420.955217
4446.660818
4429.905656
4433.770124
4445.445438
4436.886489
4397.179753
4423.793136
4485.807156
4454.435234
4410.734930
4411.370150
4445.482752
4473.306075
4441.035088
4429.224141
4450.983787
4376.278665
4437.995517
4385.606071
4448.817066
4420.486521
4428.712437
4419.682287
4426.631352
4399.603453
4442.547149
4433.499554
4429.716654
4400.348464
4438.672944
4420.055313
4412.162044
4400.710899
4423.978821
4396.889612
4447.882687
4396.619197
4507.247550
4398.932510
4321.970261
4400.976051
4445.623097
4401.683407
4474.550490
4440.533131
4451.908756
4451.389432
4337.192607
4439.773233
4422.705232
4386.418243
4429.367400
4431.685507
4421.556244
4432.872007
4426.802875
4420.566064
4412.871190
4417.233179
4406.475512
4437.767663
4406.039206
4438.521004
4449.434063
4438.492699
4426.355642
4430.160880
4452.518156
4399.836311
4375.560154
4556.380943
4375.587640
4403.965152
4466.875053
4466.057291
4433.049326
4455.802808
4436.184617
4488.415849
4465.702464
4395.108423
4428.173893
4432.072505
4425.432172
4433.646672
4413.425348
4410.824585
4422.593879
4407.325102
4429.348746
4417.032799
4425.477379
4429.811973
4409.381568
4397.443625
4421.942916
4431.767005
4418.018923
4448.382302
4461.097204
4413.749978
4440.107149
4478.164268
4595.016135
4464.220813
4469.320549
4457.286177
4442.658677
4450.968407
4485.788608
4475.411884
4439.329116
4459.394354
4431.518241
4420.857846
4433.041269
4430.250764
4420.687500
4439.349491
4426.883686
4416.932795
4436.353574
4398.727218
4433.016883
4416.223536
4436.534614
4447.960857
4420.399281
4417.632043
4397.310995
4430.728139
4440.643071
4402.298740
4396.267201
4448.853971
4459.229758
4460.078600
4463.161726
4443.705227
4451.801073
4400.284291
4359.454322
4365.815816
4349.040967
4425.843077
4434.517703
4414.622902
4414.211984
4440.362854
4409.953314
4447.730233
4403.001258
4440.086186
4438.125377
4422.860588
4415.000367
4401.728045
4415.815828
4415.528836
4450.306322
4429.349609
4372.006974
4479.622905
4448.090159
4455.376586
4504.313808
4474.342220
4467.516120
4462.678760
4437.547736
4424.817587
4460.286789
4494.337493
4416.089038
4428.821908
4425.812980
4424.029785
4438.221640
4415.184119
4430.022948
4397.625907
4431.094927
4407.454422
4416.939413
4417.094284
4410.764048
4429.598396
4396.258313
4438.269502
4441.499571
4410.568327
4425.817620
4442.376797
4433.455861
4377.955079
4470.428578
4472.032939
4489.297864
4441.326613
4440.759841
4446.297637
4442.776749
4421.865441
4459.232328
4385.397004
4415.966073
4431.877258
4432.501740
4417.416173
4439.662038
4412.658071
4444.921578
4443.510656
4416.940021
4449.267283
4412.594778
4437.886858
4406.054871
4446.666443
4452.872021
4393.324315
4438.426503
4447.353118
4409.304155
4438.087561
4423.906453
4428.320535
4472.350535
4439.239070
4453.120265
4449.621242
4495.250694
4430.794873
4465.165955
4403.056163
4421.463465
4377.203165
4425.610920
4431.105560
4413.092636
4426.159454
4421.509659
4422.891150
4415.953526
4435.244144
4409.103033
4432.948242
4413.619081
4446.675940
4403.092473
4419.864824
4407.704333
4417.952734
4414.515756
4447.435812