# vtk DataFile Version 2.0
mfree iwf
ASCII

DATASET UNSTRUCTURED_GRID
POINTS 6231 float
0.000000 0.000300 0.000000
0.000000 0.000310 0.000000
0.000000 0.000320 0.000000
0.000000 0.000330 0.000000
0.000000 0.000340 0.000000
0.000000 0.000350 0.000000
0.000001 0.000360 0.000000
0.000001 0.000370 0.000000
0.000001 0.000380 0.000000
0.000001 0.000390 0.000000
0.000001 0.000400 0.000000
0.000001 0.000410 0.000000
0.000001 0.000420 0.000000
0.000001 0.000430 0.000000
0.000002 0.000440 0.000000
0.000002 0.000451 0.000000
0.000002 0.000460 0.000000
0.000002 0.000471 0.000000
0.000002 0.000480 0.000000
0.000002 0.000492 0.000000
0.000006 0.000501 0.000000
0.000395 0.000725 0.000000
0.000432 0.000797 0.000000
0.000403 0.000742 0.000000
0.000440 0.000809 0.000000
0.000455 0.000826 0.000000
0.000494 0.000857 0.000000
0.000500 0.000860 0.000000
0.000513 0.000862 0.000000
0.000526 0.000868 0.000000
0.000558 0.000884 0.000000
0.000010 0.000300 0.000000
0.000010 0.000310 0.000000
0.000010 0.000320 0.000000
0.000010 0.000330 0.000000
0.000010 0.000340 0.000000
0.000010 0.000350 0.000000
0.000011 0.000360 0.000000
0.000011 0.000370 0.000000
0.000011 0.000380 0.000000
0.000011 0.000390 0.000000
0.000011 0.000400 0.000000
0.000011 0.000410 0.000000
0.000011 0.000420 0.000000
0.000012 0.000430 0.000000
0.000012 0.000440 0.000000
0.000012 0.000451 0.000000
0.000012 0.000460 0.000000
0.000012 0.000472 0.000000
0.000013 0.000478 0.000000
0.000010 0.000492 0.000000
0.000013 0.000498 0.000000
0.000473 0.000835 0.000000
0.000483 0.000842 0.000000
0.000490 0.000847 0.000000
0.000497 0.000850 0.000000
0.000514 0.000854 0.000000
0.000524 0.000859 0.000000
0.000537 0.000863 0.000000
0.000548 0.000870 0.000000
0.000552 0.000873 0.000000
0.000554 0.000879 0.000000
0.000020 0.000300 0.000000
0.000020 0.000310 0.000000
0.000020 0.000320 0.000000
0.000020 0.000330 0.000000
0.000020 0.000340 0.000000
0.000020 0.000350 0.000000
0.000021 0.000360 0.000000
0.000021 0.000370 0.000000
0.000020 0.000380 0.000000
0.000022 0.000391 0.000000
0.000020 0.000400 0.000000
0.000022 0.000410 0.000000
0.000020 0.000420 0.000000
0.000023 0.000431 0.000000
0.000020 0.000440 0.000000
0.000024 0.000451 0.000000
0.000021 0.000460 0.000000
0.000022 0.000470 0.000000
0.000021 0.000481 0.000000
0.000024 0.000494 0.000000
0.000020 0.000497 0.000000
0.000452 0.000807 0.000000
0.000471 0.000827 0.000000
0.000479 0.000835 0.000000
0.000486 0.000836 0.000000
0.000498 0.000837 0.000000
0.000508 0.000847 0.000000
0.000533 0.000857 0.000000
0.000545 0.000864 0.000000
0.000557 0.000862 0.000000
0.000565 0.000864 0.000000
0.000030 0.000300 0.000000
0.000030 0.000310 0.000000
0.000030 0.000320 0.000000
0.000030 0.000330 0.000000
0.000030 0.000340 0.000000
0.000031 0.000350 0.000000
0.000030 0.000360 0.000000
0.000031 0.000370 0.000000
0.000031 0.000380 0.000000
0.000031 0.000390 0.000000
0.000031 0.000400 0.000000
0.000031 0.000411 0.000000
0.000031 0.000420 0.000000
0.000032 0.000430 0.000000
0.000031 0.000440 0.000000
0.000031 0.000450 0.000000
0.000032 0.000459 0.000000
0.000037 0.000473 0.000000
0.000030 0.000478 0.000000
0.000033 0.000488 0.000000
0.000032 0.000497 0.000000
0.000063 0.000500 0.000000
0.000469 0.000820 0.000000
0.000486 0.000822 0.000000
0.000510 0.000839 0.000000
0.000520 0.000837 0.000000
0.000520 0.000848 0.000000
0.000530 0.000844 0.000000
0.000538 0.000849 0.000000
0.000548 0.000853 0.000000
0.000568 0.000856 0.000000
0.000040 0.000300 0.000000
0.000040 0.000310 0.000000
0.000040 0.000320 0.000000
0.000040 0.000329 0.000000
0.000040 0.000340 0.000000
0.000040 0.000350 0.000000
0.000040 0.000360 0.000000
0.000041 0.000370 0.000000
0.000041 0.000380 0.000000
0.000041 0.000390 0.000000
0.000042 0.000399 0.000000
0.000041 0.000410 0.000000
0.000042 0.000420 0.000000
0.000040 0.000431 0.000000
0.000042 0.000439 0.000000
0.000043 0.000450 0.000000
0.000043 0.000460 0.000000
0.000037 0.000469 0.000000
0.000045 0.000478 0.000000
0.000043 0.000496 0.000000
0.000040 0.000498 0.000000
0.000386 0.000578 0.000000
0.000482 0.000818 0.000000
0.000496 0.000826 0.000000
0.000505 0.000825 0.000000
0.000507 0.000833 0.000000
0.000529 0.000833 0.000000
0.000550 0.000844 0.000000
0.000557 0.000840 0.000000
0.000559 0.000852 0.000000
0.000571 0.000848 0.000000
0.000050 0.000300 0.000000
0.000050 0.000310 0.000000
0.000050 0.000319 0.000000
0.000050 0.000331 0.000000
0.000050 0.000340 0.000000
0.000050 0.000350 0.000000
0.000052 0.000360 0.000000
0.000049 0.000370 0.000000
0.000052 0.000379 0.000000
0.000050 0.000390 0.000000
0.000053 0.000400 0.000000
0.000049 0.000411 0.000000
0.000053 0.000420 0.000000
0.000051 0.000430 0.000000
0.000054 0.000440 0.000000
0.000047 0.000451 0.000000
0.000055 0.000458 0.000000
0.000053 0.000470 0.000000
0.000056 0.000483 0.000000
0.000049 0.000488 0.000000
0.000050 0.000498 0.000000
0.000461 0.000822 0.000000
0.000432 0.000787 0.000000
0.000494 0.000816 0.000000
0.000514 0.000821 0.000000
0.000523 0.000827 0.000000
0.000538 0.000839 0.000000
0.000536 0.000826 0.000000
0.000546 0.000834 0.000000
0.000563 0.000839 0.000000
0.000574 0.000837 0.000000
0.000060 0.000300 0.000000
0.000060 0.000310 0.000000
0.000061 0.000321 0.000000
0.000059 0.000329 0.000000
0.000062 0.000339 0.000000
0.000059 0.000350 0.000000
0.000062 0.000360 0.000000
0.000060 0.000370 0.000000
0.000063 0.000381 0.000000
0.000059 0.000390 0.000000
0.000064 0.000400 0.000000
0.000060 0.000409 0.000000
0.000064 0.000419 0.000000
0.000058 0.000430 0.000000
0.000066 0.000440 0.000000
0.000060 0.000449 0.000000
0.000066 0.000460 0.000000
0.000055 0.000471 0.000000
0.000065 0.000475 0.000000
0.000068 0.000486 0.000000
0.000059 0.000496 0.000000
0.000454 0.000817 0.000000
0.000473 0.000812 0.000000
0.000496 0.000807 0.000000
0.000505 0.000815 0.000000
0.000519 0.000811 0.000000
0.000532 0.000814 0.000000
0.000558 0.000823 0.000000
0.000549 0.000827 0.000000
0.000565 0.000829 0.000000
0.000576 0.000828 0.000000
0.000070 0.000300 0.000000
0.000070 0.000310 0.000000
0.000070 0.000319 0.000000
0.000070 0.000330 0.000000
0.000071 0.000341 0.000000
0.000068 0.000351 0.000000
0.000077 0.000357 0.000000
0.000067 0.000371 0.000000
0.000075 0.000377 0.000000
0.000069 0.000390 0.000000
0.000074 0.000400 0.000000
0.000068 0.000411 0.000000
0.000075 0.000421 0.000000
0.000068 0.000429 0.000000
0.000075 0.000438 0.000000
0.000066 0.000452 0.000000
0.000077 0.000459 0.000000
0.000073 0.000470 0.000000
0.000076 0.000486 0.000000
0.000068 0.000496 0.000000
0.000076 0.000496 0.000000
0.000386 0.000569 0.000000
0.000463 0.000806 0.000000
0.000484 0.000807 0.000000
0.000515 0.000804 0.000000
0.000524 0.000820 0.000000
0.000540 0.000812 0.000000
0.000546 0.000820 0.000000
0.000552 0.000812 0.000000
0.000568 0.000819 0.000000
0.000579 0.000818 0.000000
0.000080 0.000300 0.000000
0.000080 0.000310 0.000000
0.000080 0.000321 0.000000
0.000081 0.000330 0.000000
0.000080 0.000340 0.000000
0.000080 0.000349 0.000000
0.000075 0.000365 0.000000
0.000083 0.000367 0.000000
0.000081 0.000384 0.000000
0.000078 0.000390 0.000000
0.000087 0.000397 0.000000
0.000079 0.000409 0.000000
0.000085 0.000417 0.000000
0.000079 0.000430 0.000000
0.000087 0.000445 0.000000
0.000077 0.000447 0.000000
0.000086 0.000463 0.000000
0.000074 0.000470 0.000000
0.000087 0.000473 0.000000
0.000085 0.000483 0.000000
0.000084 0.000495 0.000000
0.000447 0.000809 0.000000
0.000426 0.000789 0.000000
0.000500 0.000798 0.000000
0.000506 0.000804 0.000000
0.000524 0.000802 0.000000
0.000534 0.000804 0.000000
0.000543 0.000801 0.000000
0.000560 0.000810 0.000000
0.000570 0.000810 0.000000
0.000581 0.000809 0.000000
0.000090 0.000300 0.000000
0.000090 0.000310 0.000000
0.000090 0.000320 0.000000
0.000090 0.000329 0.000000
0.000090 0.000340 0.000000
0.000092 0.000352 0.000000
0.000089 0.000359 0.000000
0.000092 0.000370 0.000000
0.000088 0.000379 0.000000
0.000092 0.000388 0.000000
0.000086 0.000406 0.000000
0.000094 0.000408 0.000000
0.000088 0.000425 0.000000
0.000096 0.000426 0.000000
0.000089 0.000436 0.000000
0.000097 0.000456 0.000000
0.000087 0.000453 0.000000
0.000097 0.000471 0.000000
0.000106 0.000480 0.000000
0.000089 0.000495 0.000000
0.000095 0.000495 0.000000
0.000386 0.000591 0.000000
0.000460 0.000800 0.000000
0.000447 0.000797 0.000000
0.000477 0.000804 0.000000
0.000517 0.000794 0.000000
0.000536 0.000794 0.000000
0.000553 0.000802 0.000000
0.000561 0.000798 0.000000
0.000572 0.000800 0.000000
0.000582 0.000799 0.000000
0.000100 0.000300 0.000000
0.000100 0.000310 0.000000
0.000100 0.000320 0.000000
0.000101 0.000331 0.000000
0.000100 0.000339 0.000000
0.000099 0.000349 0.000000
0.000101 0.000360 0.000000
0.000100 0.000372 0.000000
0.000101 0.000380 0.000000
0.000101 0.000393 0.000000
0.000099 0.000398 0.000000
0.000103 0.000409 0.000000
0.000100 0.000418 0.000000
0.000100 0.000435 0.000000
0.000110 0.000443 0.000000
0.000097 0.000445 0.000000
0.000108 0.000460 0.000000
0.000098 0.000467 0.000000
0.000095 0.000481 0.000000
0.000106 0.000491 0.000000
0.000101 0.000494 0.000000
0.000405 0.000747 0.000000
0.000409 0.000755 0.000000
0.000423 0.000782 0.000000
0.000509 0.000791 0.000000
0.000526 0.000789 0.000000
0.000538 0.000788 0.000000
0.000553 0.000792 0.000000
0.000552 0.000784 0.000000
0.000571 0.000792 0.000000
0.000583 0.000789 0.000000
0.000110 0.000300 0.000000
0.000110 0.000310 0.000000
0.000110 0.000320 0.000000
0.000110 0.000329 0.000000
0.000111 0.000340 0.000000
0.000110 0.000351 0.000000
0.000112 0.000361 0.000000
0.000110 0.000369 0.000000
0.000112 0.000379 0.000000
0.000109 0.000389 0.000000
0.000112 0.000400 0.000000
0.000111 0.000412 0.000000
0.000116 0.000422 0.000000
0.000107 0.000427 0.000000
0.000112 0.000434 0.000000
0.000107 0.000449 0.000000
0.000115 0.000461 0.000000
0.000111 0.000471 0.000000
0.000116 0.000480 0.000000
0.000111 0.000493 0.000000
0.000119 0.000492 0.000000
0.000389 0.000677 0.000000
0.000386 0.000614 0.000000
0.000457 0.000791 0.000000
0.000484 0.000794 0.000000
0.000478 0.000787 0.000000
[...]
POINT_DATA 6231
SCALARS density float 1
LOOKUP_TABLE default
4401.889102
4423.738885
4421.324583
4421.893926
4424.911296
4426.049290
4425.454203
4426.688966
4430.390831
4429.275925
4426.369145
4431.766483
4429.264347
4429.827259
4430.717243
4440.164505
4423.222910
4432.165271
4412.481203
4423.712286
4411.178881
4432.579398
4424.400691
4430.838152
4441.010715
4422.765413
4404.790352
4437.732021
4438.847960
4450.428755
4420.453604
4408.175653
4425.540994
4423.412871
4420.921945
4423.925029
4427.026605
4424.827055
4421.012913
4425.724979
4427.759633
4423.392588
4430.593397
4424.535589
4437.507829
4416.046510
4427.862144
4410.019604
4443.606746
4460.997977
4460.428112
4416.105545
4398.510326
4385.383394
4422.062147
4489.378345
4395.356772
4409.650273
4419.428504
4419.748051
4447.683091
4463.304339
4416.248801
4427.151033
4417.256298
4432.289035
4426.603577
4416.909099
4430.596534
4438.826656
4421.309067
4432.388956
4429.798097
4435.368254
4416.945323
4439.802808
4415.944253
4475.523108
4399.700982
4454.024772
4351.953983
4449.532131
4420.592831
4413.947070
4421.279599
4408.787861
4544.244278
4352.388669
4380.207395
4445.417954
4404.683293
4414.162223
4403.067940
4418.927039
4423.404307
4427.746528
4423.391306
4426.746427
4439.470497
4423.861360
4422.349861
4419.546082
4437.744061
4407.525295
4436.854269
4419.877917
4445.196367
4403.027079
4430.684171
4391.046660
4458.760470
4368.746876
4556.851025
4370.512927
4431.796360
4451.728765
4451.658103
4471.682603
4366.999163
4486.170192
4431.318111
4399.545417
4515.181346
4451.013494
4426.860359
4432.740994
4433.572207
4433.483762
4426.598993
4429.293029
4419.603389
4442.582949
4423.969379
4435.415267
4415.328881
4449.481407
4401.872244
4443.954069
4414.427194
4450.294721
4386.147730
4508.212257
4308.104351
4419.841772
4383.824939
4512.563987
4421.045622
4364.731059
4477.290065
4475.637568
4449.952546
4384.868741
4433.011656
4396.625960
4421.355493
4437.153961
4427.894088
4412.827402
4439.578601
4422.254376
4435.365668
4412.732961
4439.132223
4406.727401
4439.934989
4414.109315
4439.722914
4401.936049
4459.652027
4360.536607
4481.090242
4356.394335
4478.604605
4361.440851
4536.785882
4383.003922
4442.242570
4424.577487
4450.727714
4368.400024
4429.964090
4438.923314
4383.265136
4434.526092
4438.925937
4412.815685
4423.623174
4433.313138
4437.916750
4445.962242
4411.057565
4457.024480
4398.940045
4443.835418
4414.519398
4452.106790
4413.062022
4442.965300
4421.941711
4438.941063
4419.527691
4473.416773
4400.299089
4518.243679
4372.384263
4481.079511
4431.939663
4418.480946
4405.731806
4438.180709
4445.246312
4440.073414
4410.177480
4397.848565
4428.729500
4448.326038
4427.418210
4422.620900
4432.299147
4421.475940
4415.060521
4444.175628
4422.655255
4428.653590
4455.567785
4398.800858
4440.257286
4393.014572
4431.619587
4410.895353
4437.448542
4440.049550
4459.229984
4438.037657
4461.077454
4447.836557
4412.585369
4387.913735
4544.030183
4449.534991
4428.382735
4462.331256
4473.383964
4418.461836
4464.361529
4437.529740
4440.572730
4410.780597
4426.942368
4427.803483
4417.664325
4439.396993
4426.593198
4423.473204
4436.262813
4422.090919
4460.076369
4435.846644
4406.833205
4435.306133
4410.967107
4441.471899
4465.448435
4391.401745
4453.759170
4452.837615
4357.472116
4466.671845
4411.706157
4429.768779
4412.465509
4418.306143
4433.221217
4412.786542
4441.527232
4390.957218
4423.156094
4435.198446
4438.994344
4423.149719
4433.528251
4431.939164
4427.596539
4404.016599
4438.702567
4421.698823
4433.921054
4421.768461
4411.218253
4458.293143
4399.800748
4427.057542
4463.432159
4416.006028
4376.405828
4441.676053
4435.490919
4425.228363
4426.171928
4416.356068
4476.134245
4444.548807
4424.972371
4471.399838
4414.262688
4437.827382
4473.138494
4417.683685
4418.717157
4418.316226
4433.322924
4432.517187
4415.727855
4430.354004
4435.916067
4445.180665
4403.996119
4439.196676
4418.030951
4441.074388
4448.859746
4432.062532
4430.094203
4390.935170
4445.229681
4450.303947
4416.582591
4472.091407
4413.989291
4438.000915
4420.515983
4430.362990
4435.521094
4421.018029
4423.560336
4428.767677
4448.475022
4410.480042
4493.186527
4452.603049
4413.189969
4430.037293
4421.550331
4433.113531
4442.087771
4405.573436
4417.584369
4446.317750
4433.662414
4420.348741
4437.885125
4396.860465
4449.026075
4397.721109
4432.933716
4432.032768
4444.595714
4464.127994
4388.271313
4467.239516
4398.106903
4410.926648
4415.376553
4524.727836
4435.957181
4411.483234
4437.070168
4460.631920
4424.053045
4417.404324
4425.816952
4448.392197
4425.639084
4427.952966
4435.329553
4408.669509
4442.523598
4439.996037
4412.853699
4419.809860
4434.837495
4437.791549
4432.347994
4434.964414
4429.217683
4435.747152
4413.895901
4374.074336
4435.267757
4394.601116
4419.349360
4439.003731
4393.102487
4432.540553
4410.467436
4425.297600
4457.031321
4449.625678
4368.014859
4370.801125
4439.489932
4398.521951
4416.051026
4430.786358
4436.971863
4420.369971
4425.842332
4440.163788
4410.313273
4425.646097
4437.878346
4428.668470
4402.364436
4425.006264
4424.178261
4437.846143
4428.213185
4412.300879
4449.981742
4422.559374
4442.409745
4494.701547
4420.441835
4422.030290
4432.531090
4406.814447
4419.904867
4421.381825
4424.729359
4441.967753
4498.150657
4454.194450
4471.119965
4440.154556
4432.632772
4434.610862
4429.208725
4434.926192
4402.577086
4437.555066
4448.032554
4405.117639
4438.726094
4426.123840
4443.068150
4406.502945
4434.443164
4408.110887
4440.651278
4379.468169
4409.163887
4502.935176
4570.674801
4387.685057
4372.452216
4408.452437
4415.882254
4453.147103
4453.013946
4386.400614
4445.787480
4393.811937
4407.189032
4403.740385
4442.280404
4429.382959
4436.399980
4425.477485
4431.786338
4433.190827
4415.404865
4409.723865
4441.662871
4430.974934
4397.298510
4444.575190
4411.260269
4445.995903
4390.720033
4463.301749
4416.733040
4484.954871
4350.038160
4327.777273
4507.580412
4393.548020
4413.817070
4424.352338
4439.738826
4479.717145
4477.479903
4418.827655
4409.234078
4429.631259
4418.977680
4412.806126
4428.559757
4439.138468
4422.550221
4420.408959
4439.472921
4424.815855
4433.657034
4419.009657
4423.805335
4446.713236
4425.487141
4400.169573
4446.295025
4420.046106
4433.259302
4412.181369
4416.355980
4500.044484
4489.355512
4422.555683
4403.468142
4427.435849
4442.095217
4424.959078
4388.197964
4442.862702
4437.582281
4414.449912
4415.267821
4443.148416
4424.943818
4433.319960
4425.168580
4432.480783
4444.185132
4412.149516
4439.437474
4427.784422
4424.303768
4428.990715
4409.777603
4427.529441
4453.087362
4420.914598
4439.766558
4394.926952
4453.284908
4403.043025
4468.238400
4332.143766
4357.895959
4431.755321
4419.268847
4426.135413
4385.994668
4394.389922
4454.223273
4414.418162
4442.104255
4460.243809
4409.036627
4427.217606
4435.392022
4429.809546
4425.822815
4432.982157
4428.484373
4437.568407
4410.810808
4444.200279
4422.052637
4449.045050
4413.895583
4415.327897
4410.080703
4447.549438
4406.009770
4453.539596
4329.808554
4474.417167
4392.849283
4449.784064
4402.463363
4420.873964
4425.451150
4429.727094
4461.262592
4389.072496
4476.969625
4452.008472
4417.649639
4399.604153
4427.761835
4429.995387
4426.756848
4432.867703
4426.316310
4423.443777
4428.239583
4429.171735
4438.399787
4395.044104
4441.236484
4403.559143
4453.388029
4404.364618
4443.632323
4388.971398
4449.386544
4456.535988
4492.299239
4428.013219
4548.250221
4390.844939
4468.632537
4458.109141
4431.623127
4454.563567
4428.510674
4405.829836
4400.721090
4401.553205
4488.289406
4388.012749
4427.594261
4425.068279
4427.957228
4426.545829
4431.792047
4434.806243
4420.858432
4420.981386
4438.667671
4436.273070
4400.589468
4456.370132
4382.496131
4448.458251
4428.217614
4415.293982
4402.035008
4471.627625
4359.231347
4393.150593
4497.765992
4411.507653
4431.066812
4460.009153
4420.818085
4384.574688
4413.006746
4428.665747
4459.023496
4395.388831
4367.177032
4423.212656
4436.083264
4436.923432
4416.304632
4423.167079
4415.384075
4432.843128
4427.986616
4410.100246
4430.192364
4442.429682
4400.129170
4453.350946
4419.729545
4419.089786
4467.632945
4385.603004
4474.051868
4404.948474
4474.598900
4411.037280
4441.971647
4421.697584
4412.499808
4411.758218
4439.934226
4438.452616
4433.288480
4347.892573
4395.350625
4457.003810
4426.515031
4426.667206
4413.000154
4441.910003
4434.042017
4414.594100
4421.315678
4431.536058
4441.537931
4409.643452
4439.789251
4407.317766
4452.642184
4424.050259
4405.586264
4420.786357
4398.567108
4445.374660
4385.558659
4445.204525
4478.354620
4428.043384
4428.791011
4469.439302
4450.635866
4453.099053
4491.846250
4378.739565
4501.863081
4385.973497
4434.422625
4427.308002
4433.618690
4436.559889
4426.063467
4413.961140
4438.116316
4425.326367
4394.910702
4445.831552
4417.429726
4414.015407
4466.739326
4398.171533
4452.237616
4431.905639
4403.814654
4443.988008
4428.698014
4424.148338
4418.241639
4417.274599
4383.308468
4442.022775
4369.920896
4445.318867
4433.593156
4390.558102
4362.925338
4491.645305
4427.577513
4432.403055
4429.261258
4422.413803
4421.419590
4420.258452
4441.055800
4414.248177
4428.382412
4451.834337
4399.956693
4440.902947
4405.021661
4444.664244
4378.139896
4411.997411
4376.946448
4452.213039
4388.594623
4414.762777
4426.922735
4511.191470
4417.115883
4411.790756
4433.661287
4386.886568
4472.173308
4458.509018
4476.677723
4405.395660
4455.397911
4433.994514
4468.140261
4432.028536
4421.653827
4438.842701
4434.006851
4422.378394
4424.880103
4405.505013
4426.853150
4402.093396
4445.973299
4416.225811
4429.161484
4444.454149
4409.912651
4461.317977
4457.551558
4406.931704
4495.068316
4380.646835
4417.036018
4427.293231
4407.981872
4508.355759
4436.430208
4430.922344
4412.855089
4449.233772
4423.510489
4430.070594
4418.502799
4417.070228
4421.684935
4436.977887
4427.950555
4417.203382
4416.395920
4445.569948
4430.420268
4419.716162
4442.536524
4389.646041
4413.125485
4417.426092
4438.974261
4397.587213
4410.264871
4424.679689
4400.450895
4404.195886
4383.656436
4472.736540
4471.511783
4745.789637
4453.916723
4443.009072
4436.019146
4416.680746
4455.362119
4430.040221
4470.956930
4390.339399
4432.274913
4431.824664
4437.058378
4411.203351
4438.732042
4453.087968
4403.233692
4424.150502
4407.569462
4416.672241
4429.645220
4438.236066
4427.791589
4414.208250
4451.288004
4437.561671
4427.849712
4449.122879
4406.400144
4425.636564
4431.469372
4417.409995
4415.756471
4378.278884
4501.936510
4449.427670
4448.535118
4442.342418
4424.453173
4456.659585
4383.371088
4429.640037
4430.273623
4424.914083
4437.900565
4426.227653
4413.739411
4438.269457
4438.889146
4427.217200
4422.569615
4423.455916
4402.170651
4419.954856
4448.952134
4411.638726
4394.284602
4409.733795
4451.476357
4408.745041
4422.217872
4419.329497
4403.958490
4385.671014
4402.658148
4418.128253
4430.387303
4455.276087
4400.455710
4457.436542
4405.701734
4454.986731
4415.144917
4425.313829
4421.236421
4434.637847
4422.279196
4435.048003
4441.177136
4397.464252
4419.492210
4424.582836
4408.405274
4446.582844
4414.616077
4423.133959
4378.073877
4489.493919
4439.542857
4479.166334
4397.223941
4359.542212
4474.453423
4449.150756
4405.670678
4438.741106
4406.523692
4480.992607
4439.937422
4406.369450
4431.197445
4405.055448
4436.333427
4458.086416
4429.937013
4436.789647
4422.934699
4428.437417
4435.023592
4404.053322
4451.374908
4426.460574
4426.862053
4398.325610
4443.890755
4382.226582
4469.106957
4436.569048
4396.336632
4370.205578
4409.904277
4457.770774
4461.488912
4439.740632
4447.069867
4505.020669
4476.577667
4424.694894
4398.810578
4445.227904
4422.168196
4433.658045
4403.321676
4426.498079
4393.580174
4431.392098
4426.124830
4434.258575
4432.890962
4426.189073
4423.060717
4441.138173
4385.495302
4451.653201
4418.712833
4421.853942
4444.046511
4408.513928
4404.469858
4427.366299
4468.572423
4426.656375
4454.758536
4364.964731
4374.172579
4423.918865
4428.317683
4467.217347
4403.611639
4459.522736
4420.303281
4450.420053
4406.590485
4459.999760
4329.090400
4441.766245
4434.081422
4427.486769
4431.864893
4422.469939
4428.593289
4433.023941
4403.998902
4452.248588
4406.858783
4428.719900
4416.936247
4429.946057
4405.584154
4448.800327
4397.993463
4455.598145
4383.127645
4377.570168
4444.986632
4461.211749
4451.850778
4382.205762
4475.678257
4471.913681
4412.223465
4468.558671
4420.544904
4442.310645
4459.360585
4455.055075
4407.512101
4437.365472
4430.649657
4437.992378
4429.237075
4428.026580
4433.986192
4390.141906
4470.088971
4382.449515
4450.038529
4410.820988
4435.930435
4423.591786
4434.980275
4400.058620
4430.104555
4446.799687
4490.588732
4365.840941
4461.799366
4452.719136
4466.835026
4443.051985
4445.825836
4418.227519
4438.697888
4430.289008
4379.710159
4350.380057
4402.988069
4433.084040
4430.601482
4425.870282
4421.184114
4431.751791
4420.954303
4426.169198
4441.747966
4395.314728
4442.100111
4433.237010
4390.802388
4443.735698
4395.375463
4440.189028
4395.134828
4448.286259
4335.996234
4430.702953
4258.008665
4410.301917
4544.226290
4390.523407
4476.960189
4490.147111
4432.128239
4454.872352
4430.068522
4457.948730
4422.669434
4480.145428
4448.121940
4424.570487
4434.767457
4439.922272
4431.418673
4431.797848
4411.793879
4439.300532
4403.519402
4438.042516
4407.829109
4425.637195
4417.175692
4417.878568
4439.067750
4402.012502
4455.053964
4395.556115
4546.890553
4545.709782
4521.359463
4391.308058
4633.105231
4430.988271
4468.840518
4456.178780
4462.965872
4455.699238
4428.670429
4410.247011
4403.010121
4446.195862
4424.049882
4434.531761
4411.029113
4432.339279
4426.350707
4451.847188
4403.947420
4414.484098
4390.010872
4436.245589
4439.885323
4403.444085
4423.231447
4423.857448
4432.374934
4438.857778
4417.636813
4372.316909
4463.883639
4504.525399
4388.545804
4509.758026
4418.314179
4486.104996
4447.747011
4417.188053
4424.441407
4433.154380
4435.363409
4428.303752
4415.889321
4429.044572
4432.562086
4433.786520
4436.076133
4414.335703
4400.089746
4438.920914
4440.409425
4454.109274
4409.657158
4404.957812
4436.183476
4443.695401
4434.503895
4413.116031
4414.787617
4485.017465
4371.649698
4566.550657
4258.997408
4338.738534
4463.029405
4493.730044
4422.551015
4443.497430
4445.117140
4474.070600
4425.804812
4451.408773
4438.663227
4405.033866
4427.298575
4424.699366
4408.678077
4418.570473
4448.969100
4421.626438
4394.683069
4446.931270
4389.387895
4453.449813
4420.976913
4419.414505
4380.026461
4445.461430
4453.427764
4429.036623
4414.603470
4440.923610
4381.949527
4482.081991
4426.928529
4471.049792
4456.109689
4473.584554
4438.044012
4437.996036
4458.663383
4424.148344
4418.164457
4414.948425
4395.335232
4421.209496
4421.652724
4449.600064
4429.052223
4430.616983
4429.577082
4422.547645
4446.354100
4418.031142
4442.866973
4402.199813
4421.231140
4436.948295
4410.717573
4421.925740
4434.426786
4428.208509
4452.241846
4424.773389
4457.509618
4468.917526
4516.475238
4481.910694
4464.187320
4444.458178
4448.617883
4447.505306
4460.462060
4442.248648
4469.675064
4395.945025
4419.550856
4432.572559
4401.325898
4412.634488
4427.559014
4397.672964
4420.318273
4411.179105
4437.762066
4406.051085
4440.872541
4410.933971
4399.709291
4430.291841
4433.336491
4435.871287
4426.035867
4419.513547
4427.482562
4460.740273
4453.860978
4440.939363
4488.398759
4477.244459
4450.848659
4438.319725
4457.413387
4457.090889
4369.648254
4432.802419
4404.746129
4423.899623
4438.112720
4427.096721
4437.187782
4452.842247
4446.905315
4446.612574
4425.299920
4415.939361
4425.373824
4422.163954
4416.516702
4419.722835
4425.234416
4398.133382
4440.735932
4445.078102
4457.624047
4428.821433
4454.791637
4436.312384
4461.415395
4459.757798
4434.752995
4462.456217
4460.686897
4438.007170
4418.163506
4483.532099
4443.847140
4411.886010
4426.869580
4426.233260
4410.760115
4418.058884
4387.683958
4450.082277
4399.579680
4435.449313
4425.555591
4408.871162
4414.797302
4421.955390
4420.699355
4435.562710
4416.697572
4440.037257
4422.468623
4439.185853
4431.756411
4440.805855
4447.166278
4475.884263
4444.044150
4467.834370
4446.291780
4446.996814
4445.413610
4426.481628
4430.821754
4405.120071
4413.121515
4424.879144
4419.055673
4436.682523
4443.480769
4422.047419
4443.358248
4413.482526
4459.204455
4406.191910
4440.412738
4403.566958
4423.841770
4405.839463
4434.955053
4424.860824
4409.740987
4429.511995
4427.319151
4454.782877
4440.163032
4441.967400
4438.884287
4456.569831
4452.699954
4457.515484
4444.982259
4446.478059
4443.806827
4471.191891
4426.669807
4409.760476
4422.205357
4422.734481
4426.966833
4389.253462
4428.104097
4404.272154
4436.674551
4422.913258
4449.100178
4441.318330
4446.408708
4423.069971
4432.343418
4435.105373
4427.576490
4432.378189
4447.853694
4435.314041
4432.184538
4430.212090
4455.830533
4448.597930
4448.600222
4430.291246
4435.645928
4477.485477
4457.037997
4469.445616
4471.479936
4438.636660
4408.716083
4423.406670
4427.947266
4429.651888
4422.018336
4455.815854
4427.258751
4441.087195
4414.466740
4409.548896
4427.029927
4439.745996
4439.624279
4414.124792
4411.702791
4405.330172
4437.881788
4443.904195
4410.623839
4428.130887
4417.205611
4443.541235
4414.298111
4451.430320
4428.208688
4468.421388
4420.539756
4453.751006
4416.625520
4403.657694
4460.618039
4503.985447
4426.432156
4427.828083
4421.773136
4415.106251
4393.491353
4448.958082
4427.579534
4416.722388
4397.084139
4443.331102
4416.763857
4387.282126
4447.106288
4462.035837
4420.090167
4430.945234
4445.531548
4419.949096
4453.438142
4434.256842
4431.877525
4447.363263
4446.705315
4403.665609
4460.376443
4412.730228
4471.395609
4392.794414
4443.231096
4429.185868
4386.856694
4431.057238
4429.490738
4433.472235
4439.102185
4433.453862
4422.764690
4422.959442
4418.952816
4451.137221
4407.618452
4432.435702
4428.310783
4415.390794
4392.009324
4442.983468
4410.247633
4404.391569
4432.282729
4446.079792
4404.373505
4454.805595
4450.987030
4467.901306
4403.923353
4455.813593
4463.651029
4389.734960
4494.081709
4484.091275
4441.299197
4444.566655
4434.931385
4425.899313
4435.501534
4411.755595
4419.021356
4410.394072
4423.600072
4435.277629
4421.335404
4419.752405
4430.157479
4405.477339
4447.768701
4435.508829
4424.145664
4444.483431
4434.092837
4423.932838
4431.067462
4441.297297
4421.111042
4382.364100
4422.986523
4468.506560
4452.389067
4428.035568
4427.405454
4496.259569
4456.213375
4456.925288
4461.125089
4435.337757
4424.355598
4441.423127
4432.390335
4443.077110
4447.375667
4429.860271
4415.267054
4420.599927
4437.741677
4435.174155
4425.305084
4404.182295
4416.489872
4406.979612
4439.214845
4444.362936
4424.682143
4423.736066
4402.542549
4441.938793
4435.586742
4428.210717
4434.656207
4443.356181
4451.571577
4455.242180
4444.948751
4426.971014
4461.646865
4457.414715
4430.369979
4434.627821
4428.702609
4418.159211
4418.987080
4392.897538
4455.583637
4426.058003
4434.534739
4441.460828
4407.575182
4438.150019
4441.039071
4432.439952
4446.478510
4425.775646
4426.833469
4422.791493
4438.418958
4416.198292
4443.716354
4428.128218
4451.851292
4431.914596
4430.318811
4429.665387
4455.317314
4451.059037
4476.548216
4448.674062
4462.634636
4431.203492
4429.539922
4428.578428
4423.700513
4442.318812
4418.882175
4428.822254
4407.525100
4427.117292
4446.984865
4397.567189
4439.445745
4421.724748
4414.674911
4407.789969
4426.492295
4412.722554
4441.481522
4418.361684
4425.839368
4422.648548
4449.212138
4432.060644
4433.045786
4459.344580
4451.830826
4439.947273
4452.830117
4451.236820
4441.837251
4460.111822
4433.828738
4435.957623
4420.358355
4448.189089
4409.903116
4432.007663
4421.995921
4458.015053
4405.625323
4397.950539
4440.429091
4402.019593
4440.788734
4421.373171
4433.652699
4415.124718
4452.275374
4411.969227
4431.336739
4429.241739
4443.769283
4431.942954
4433.560433
4431.499264
4436.920511
4444.584444
4460.313668
4452.051852
4471.948238
4472.575245
4460.109787
4437.978011
4429.604459
4416.438990
4418.212328
4433.360708
4429.101579
4437.816606
4427.897305
4429.540140
4454.237341
4432.527082
4434.399529
4435.674389
4447.797906
4437.755375
4428.489648
4450.661580
4434.701928