# vtk DataFile Version 2.0
mfree iwf
ASCII

DATASET UNSTRUCTURED_GRID
POINTS 6231 float
0.000000 0.000300 0.000000
0.000000 0.000310 0.000000
0.000000 0.000320 0.000000
0.000000 0.000330 0.000000
0.000000 0.000340 0.000000
0.000000 0.000350 0.000000
0.000000 0.000360 0.000000
0.000001 0.000370 0.000000
0.000001 0.000380 0.000000
0.000001 0.000390 0.000000
0.000001 0.000400 0.000000
0.000001 0.000410 0.000000
0.000001 0.000420 0.000000
0.000001 0.000430 0.000000
0.000001 0.000440 0.000000
0.000001 0.000450 0.000000
0.000002 0.000460 0.000000
0.000002 0.000470 0.000000
0.000002 0.000480 0.000000
0.000001 0.000492 0.000000
0.000006 0.000501 0.000000
0.001060 0.001110 0.000000
0.001134 0.001144 0.000000
0.001077 0.001117 0.000000
0.001147 0.001149 0.000000
0.001169 0.001153 0.000000
0.001218 0.001156 0.000000
0.001226 0.001154 0.000000
0.001238 0.001148 0.000000
0.001251 0.001145 0.000000
0.001280 0.001145 0.000000
0.000010 0.000300 0.000000
0.000010 0.000310 0.000000
0.000010 0.000320 0.000000
0.000010 0.000330 0.000000
0.000010 0.000340 0.000000
0.000010 0.000350 0.000000
0.000010 0.000360 0.000000
0.000011 0.000370 0.000000
0.000011 0.000380 0.000000
0.000011 0.000390 0.000000
0.000011 0.000400 0.000000
0.000011 0.000410 0.000000
0.000011 0.000420 0.000000
0.000011 0.000430 0.000000
0.000011 0.000440 0.000000
0.000011 0.000450 0.000000
0.000012 0.000460 0.000000
0.000011 0.000472 0.000000
0.000013 0.000478 0.000000
0.000009 0.000492 0.000000
0.000013 0.000498 0.000000
0.001188 0.001149 0.000000
0.001203 0.001150 0.000000
0.001211 0.001150 0.000000
0.001217 0.001148 0.000000
0.001233 0.001141 0.000000
0.001244 0.001139 0.000000
0.001258 0.001135 0.000000
0.001269 0.001136 0.000000
0.001275 0.001133 0.000000
0.001277 0.001141 0.000000
0.000020 0.000300 0.000000
0.000020 0.000310 0.000000
0.000020 0.000320 0.000000
0.000020 0.000330 0.000000
0.000021 0.000340 0.000000
0.000020 0.000350 0.000000
0.000021 0.000360 0.000000
0.000021 0.000370 0.000000
0.000020 0.000380 0.000000
0.000021 0.000390 0.000000
0.000020 0.000400 0.000000
0.000022 0.000410 0.000000
0.000020 0.000420 0.000000
0.000022 0.000430 0.000000
0.000020 0.000440 0.000000
0.000023 0.000451 0.000000
0.000020 0.000460 0.000000
0.000022 0.000470 0.000000
0.000021 0.000482 0.000000
0.000024 0.000494 0.000000
0.000020 0.000497 0.000000
0.001154 0.001139 0.000000
0.001183 0.001144 0.000000
0.001194 0.001146 0.000000
0.001199 0.001143 0.000000
0.001208 0.001136 0.000000
0.001223 0.001139 0.000000
0.001249 0.001132 0.000000
0.001264 0.001131 0.000000
0.001271 0.001122 0.000000
0.001278 0.001119 0.000000
0.000030 0.000300 0.000000
0.000030 0.000310 0.000000
0.000030 0.000320 0.000000
0.000031 0.000330 0.000000
0.000030 0.000340 0.000000
0.000031 0.000350 0.000000
0.000030 0.000360 0.000000
0.000031 0.000370 0.000000
0.000031 0.000380 0.000000
0.000031 0.000390 0.000000
0.000031 0.000400 0.000000
0.000031 0.000410 0.000000
0.000031 0.000420 0.000000
0.000031 0.000430 0.000000
0.000031 0.000440 0.000000
0.000030 0.000450 0.000000
0.000031 0.000459 0.000000
0.000036 0.000473 0.000000
0.000029 0.000478 0.000000
0.000032 0.000488 0.000000
0.000032 0.000497 0.000000
0.000063 0.000500 0.000000
0.001175 0.001140 0.000000
0.001192 0.001132 0.000000
0.001218 0.001129 0.000000
0.001227 0.001122 0.000000
0.001234 0.001134 0.000000
0.001236 0.001126 0.000000
0.001248 0.001123 0.000000
0.001255 0.001121 0.000000
0.001277 0.001111 0.000000
0.000040 0.000300 0.000000
0.000040 0.000310 0.000000
0.000040 0.000320 0.000000
0.000040 0.000330 0.000000
0.000040 0.000340 0.000000
0.000040 0.000349 0.000000
0.000040 0.000360 0.000000
0.000041 0.000370 0.000000
0.000041 0.000380 0.000000
0.000040 0.000390 0.000000
0.000041 0.000399 0.000000
0.000041 0.000410 0.000000
0.000042 0.000420 0.000000
0.000040 0.000430 0.000000
0.000042 0.000439 0.000000
0.000043 0.000450 0.000000
0.000042 0.000460 0.000000
0.000037 0.000469 0.000000
0.000045 0.000477 0.000000
0.000043 0.000496 0.000000
0.000040 0.000498 0.000000
0.000955 0.000972 0.000000
0.001182 0.001130 0.000000
0.001201 0.001128 0.000000
0.001206 0.001124 0.000000
0.001218 0.001131 0.000000
0.001238 0.001117 0.000000
0.001258 0.001111 0.000000
0.001256 0.001101 0.000000
0.001267 0.001114 0.000000
0.001274 0.001102 0.000000
0.000050 0.000300 0.000000
0.000050 0.000310 0.000000
0.000050 0.000320 0.000000
0.000050 0.000330 0.000000
0.000051 0.000339 0.000000
0.000050 0.000351 0.000000
0.000051 0.000360 0.000000
0.000050 0.000371 0.000000
0.000051 0.000380 0.000000
0.000050 0.000390 0.000000
0.000052 0.000400 0.000000
0.000049 0.000410 0.000000
0.000053 0.000419 0.000000
0.000051 0.000430 0.000000
0.000053 0.000440 0.000000
0.000047 0.000451 0.000000
0.000054 0.000458 0.000000
0.000052 0.000469 0.000000
0.000055 0.000483 0.000000
0.000048 0.000488 0.000000
0.000050 0.000498 0.000000
0.001173 0.001147 0.000000
0.001128 0.001135 0.000000
0.001194 0.001121 0.000000
0.001205 0.001108 0.000000
0.001224 0.001113 0.000000
0.001240 0.001110 0.000000
0.001230 0.001105 0.000000
0.001249 0.001110 0.000000
0.001264 0.001102 0.000000
0.001270 0.001091 0.000000
0.000060 0.000300 0.000000
0.000060 0.000310 0.000000
0.000060 0.000321 0.000000
0.000060 0.000331 0.000000
0.000061 0.000339 0.000000
0.000059 0.000349 0.000000
0.000061 0.000359 0.000000
0.000060 0.000369 0.000000
0.000062 0.000380 0.000000
0.000059 0.000391 0.000000
0.000063 0.000399 0.000000
0.000060 0.000410 0.000000
0.000064 0.000419 0.000000
0.000058 0.000430 0.000000
0.000065 0.000440 0.000000
0.000060 0.000449 0.000000
0.000065 0.000460 0.000000
0.000055 0.000471 0.000000
0.000064 0.000475 0.000000
0.000068 0.000485 0.000000
0.000058 0.000496 0.000000
0.001163 0.001146 0.000000
0.001173 0.001131 0.000000
0.001188 0.001113 0.000000
0.001208 0.001116 0.000000
0.001219 0.001103 0.000000
0.001221 0.001094 0.000000
0.001249 0.001092 0.000000
0.001241 0.001100 0.000000
0.001259 0.001091 0.000000
0.001267 0.001083 0.000000
0.000070 0.000300 0.000000
0.000070 0.000310 0.000000
0.000070 0.000319 0.000000
0.000071 0.000328 0.000000
0.000071 0.000340 0.000000
0.000070 0.000351 0.000000
0.000072 0.000359 0.000000
0.000068 0.000372 0.000000
0.000081 0.000376 0.000000
0.000069 0.000390 0.000000
0.000073 0.000400 0.000000
0.000068 0.000411 0.000000
0.000074 0.000421 0.000000
0.000068 0.000429 0.000000
0.000075 0.000438 0.000000
0.000066 0.000452 0.000000
0.000078 0.000458 0.000000
0.000072 0.000470 0.000000
0.000076 0.000486 0.000000
0.000068 0.000495 0.000000
0.000076 0.000496 0.000000
0.000946 0.000951 0.000000
0.001162 0.001134 0.000000
0.001183 0.001123 0.000000
0.001201 0.001092 0.000000
0.001218 0.001113 0.000000
0.001231 0.001094 0.000000
0.001242 0.001092 0.000000
0.001235 0.001083 0.000000
0.001255 0.001082 0.000000
0.001263 0.001073 0.000000
0.000080 0.000300 0.000000
0.000080 0.000310 0.000000
0.000081 0.000321 0.000000
0.000079 0.000332 0.000000
0.000082 0.000340 0.000000
0.000080 0.000350 0.000000
0.000082 0.000361 0.000000
0.000074 0.000370 0.000000
0.000075 0.000384 0.000000
0.000080 0.000391 0.000000
0.000089 0.000397 0.000000
0.000079 0.000410 0.000000
0.000086 0.000417 0.000000
0.000078 0.000431 0.000000
0.000086 0.000445 0.000000
0.000076 0.000448 0.000000
0.000084 0.000464 0.000000
0.000074 0.000470 0.000000
0.000088 0.000472 0.000000
0.000085 0.000482 0.000000
0.000084 0.000495 0.000000
0.001153 0.001145 0.000000
0.001124 0.001141 0.000000
0.001186 0.001101 0.000000
0.001196 0.001109 0.000000
0.001210 0.001099 0.000000
0.001214 0.001086 0.000000
0.001225 0.001086 0.000000
0.001245 0.001080 0.000000
0.001252 0.001073 0.000000
0.001259 0.001064 0.000000
0.000090 0.000300 0.000000
0.000090 0.000310 0.000000
0.000090 0.000319 0.000000
0.000090 0.000329 0.000000
0.000091 0.000340 0.000000
0.000089 0.000350 0.000000
0.000092 0.000361 0.000000
0.000089 0.000369 0.000000
0.000092 0.000379 0.000000
0.000089 0.000387 0.000000
0.000084 0.000404 0.000000
0.000093 0.000409 0.000000
0.000086 0.000425 0.000000
0.000096 0.000426 0.000000
0.000089 0.000435 0.000000
0.000097 0.000455 0.000000
0.000087 0.000453 0.000000
0.000098 0.000472 0.000000
0.000106 0.000480 0.000000
0.000089 0.000495 0.000000
0.000094 0.000495 0.000000
0.000964 0.000988 0.000000
0.001156 0.001128 0.000000
0.001145 0.001135 0.000000
0.001175 0.001120 0.000000
0.001192 0.001089 0.000000
0.001219 0.001077 0.000000
0.001232 0.001075 0.000000
0.001239 0.001070 0.000000
0.001247 0.001064 0.000000
0.001254 0.001055 0.000000
0.000100 0.000300 0.000000
0.000100 0.000310 0.000000
0.000100 0.000321 0.000000
0.000100 0.000331 0.000000
0.000101 0.000340 0.000000
0.000099 0.000350 0.000000
0.000101 0.000359 0.000000
0.000100 0.000370 0.000000
0.000101 0.000381 0.000000
0.000100 0.000391 0.000000
0.000100 0.000400 0.000000
0.000103 0.000407 0.000000
0.000101 0.000418 0.000000
0.000100 0.000436 0.000000
0.000108 0.000442 0.000000
0.000096 0.000445 0.000000
0.000107 0.000460 0.000000
0.000096 0.000465 0.000000
0.000094 0.000481 0.000000
0.000106 0.000491 0.000000
0.000101 0.000494 0.000000
0.001083 0.001121 0.000000
0.001092 0.001126 0.000000
0.001118 0.001138 0.000000
0.001198 0.001099 0.000000
0.001207 0.001084 0.000000
0.001208 0.001074 0.000000
0.001229 0.001067 0.000000
0.001220 0.001064 0.000000
0.001242 0.001058 0.000000
0.001249 0.001047 0.000000
0.000110 0.000300 0.000000
0.000110 0.000310 0.000000
0.000110 0.000319 0.000000
0.000110 0.000329 0.000000
0.000110 0.000340 0.000000
0.000111 0.000351 0.000000
0.000109 0.000360 0.000000
0.000113 0.000370 0.000000
0.000110 0.000378 0.000000
0.000110 0.000389 0.000000
0.000112 0.000399 0.000000
0.000110 0.000414 0.000000
0.000116 0.000423 0.000000
0.000105 0.000427 0.000000
0.000114 0.000432 0.000000
0.000107 0.000451 0.000000
0.000116 0.000462 0.000000
0.000110 0.000470 0.000000
0.000116 0.000480 0.000000
0.000111 0.000493 0.000000
0.000119 0.000492 0.000000
0.001028 0.001078 0.000000
0.000974 0.001007 0.000000
0.001150 0.001123 0.000000
0.001170 0.001110 0.000000
0.001159 0.001107 0.000000
[...]
POINT_DATA 6231
SCALARS density float 1
LOOKUP_TABLE default
4414.855104
4427.764430
4423.303501
4422.655646
4423.132553
4422.402514
4426.158417
4427.434428
4427.970487
4429.532781
4429.165339
4433.360371
4428.607557
4429.891359
4431.546543
4440.085377
4423.472535
4431.956942
4413.555235
4424.223881
4411.252853
4422.525363
4424.317017
4432.452765
4437.639825
4420.973450
4397.843222
4428.101175
4448.327113
4450.052581
4417.150199
4417.836847
4424.955957
4425.254318
4428.560020
4430.532209
4429.119422
4424.960645
4427.752679
4428.661719
4430.161184
4423.268110
4426.511800
4422.759306
4438.329430
4417.294178
4427.614263
4410.917367
4441.599909
4463.143000
4459.493542
4416.184253
4408.537980
4415.280519
4436.345657
4510.062826
4396.230726
4405.854432
4424.279118
4398.880583
4450.263431
4437.899932
4419.752303
4430.371421
4427.074940
4424.363686
4422.704935
4427.032088
4427.392202
4432.959968
4419.036255
4432.117027
4427.423819
4441.721526
4423.363788
4437.278501
4415.328438
4474.368555
4401.017537
4455.053539
4351.685372
4450.939220
4421.504090
4426.346557
4441.988318
4420.878627
4503.628683
4334.073680
4361.958422
4413.863491
4427.824731
4426.048362
4403.980021
4428.334078
4430.139173
4425.178873
4433.548972
4433.817626
4432.421953
4424.656496
4435.274602
4425.848985
4439.820563
4412.802684
4429.052648
4415.912836
4445.481922
4406.764884
4429.664364
4389.050646
4451.898305
4372.919458
4550.359054
4373.547416
4435.697700
4463.123514
4422.032455
4458.935297
4350.654390
4484.897372
4451.059213
4419.425661
4474.703203
4429.019464
4431.344820
4427.831349
4431.620954
4436.184590
4423.067020
4436.382610
4429.956775
4432.556851
4423.556002
4429.284209
4418.929095
4450.976196
4411.669517
4444.841771
4414.244691
4449.949968
4387.876914
4512.789271
4310.540978
4418.719253
4384.872652
4431.165603
4409.482606
4442.571480
4456.029590
4496.810827
4429.854811
4402.346474
4476.786455
4444.221478
4414.454049
4429.959975
4432.920236
4430.636076
4433.202525
4431.376312
4436.710012
4422.462582
4438.995438
4422.741523
4439.947736
4416.267184
4439.154168
4399.574551
4449.000625
4373.323997
4478.749004
4363.090410
4471.132026
4363.319896
4538.188739
4381.408425
4436.659566
4428.716845
4449.325228
4450.382068
4459.165697
4443.075025
4392.290074
4414.020677
4424.009658
4420.006146
4428.902567
4438.886818
4420.106477
4438.527589
4437.588229
4440.118846
4411.630065
4444.199824
4397.013210
4445.609768
4425.136437
4441.012077
4423.213097
4445.977467
4408.630011
4467.917089
4399.624552
4514.304559
4378.071382
4468.017162
4433.465202
4413.621994
4391.522756
4398.131057
4394.847387
4458.192584
4425.678229
4413.381037
4415.395014
4419.186296
4431.436897
4432.046598
4429.429829
4427.605508
4438.139480
4395.729221
4448.497340
4429.083227
4427.433547
4403.138736
4452.270168
4386.968049
4435.669357
4409.143969
4433.553242
4440.120484
4458.437405
4432.144409
4452.870634
4454.773657
4414.598288
4387.945726
4432.899944
4466.921918
4447.660272
4408.770221
4406.056413
4427.938995
4451.090950
4433.496411
4443.008790
4412.539094
4429.774171
4427.571456
4421.033697
4425.546277
4432.332953
4438.870827
4414.305270
4441.617461
4429.578931
4442.427487
4416.245091
4434.486111
4421.482029
4439.102968
4451.496871
4400.293351
4459.551423
4448.232090
4369.102388
4464.904432
4410.319275
4428.469744
4414.275794
4432.045196
4432.682815
4389.944925
4451.905176
4442.786449
4402.190823
4438.105632
4435.558416
4424.344132
4435.339114
4436.890822
4407.234922
4434.598916
4417.742026
4440.050011
4448.775083
4432.224103
4421.309172
4448.313711
4406.205852
4426.586675
4456.301478
4413.002728
4393.311715
4428.186785
4411.928885
4436.604243
4423.812728
4412.628604
4428.089721
4415.995391
4436.899234
4474.106483
4404.774986
4384.455060
4435.562238
4440.237743
4433.169463
4413.379301
4429.722020
4427.042485
4423.194958
4443.757441
4431.470747
4423.465927
4436.021565
4402.855757
4444.434905
4423.304633
4438.236626
4442.157032
4421.293422
4402.111268
4453.702279
4456.271629
4430.893243
4461.280267
4427.689790
4428.468721
4415.516666
4425.209365
4435.410843
4427.105051
4454.495963
4458.199316
4398.645008
4410.260488
4470.955145
4448.502531
4425.115133
4430.378049
4435.854276
4435.628039
4423.036486
4427.116807
4424.706183
4433.351687
4441.217596
4431.479363
4422.693144
4410.360709
4440.144782
4406.560071
4444.573870
4420.143675
4415.551304
4475.754301
4403.115797
4458.277781
4406.021030
4410.537578
4438.021165
4437.394812
4407.438888
4388.943354
4393.815039
4446.771456
4446.374930
4410.928597
4424.339757
4452.409492
4434.272371
4431.410897
4421.898175
4434.483716
4427.685352
4433.545951
4413.466816
4430.549023
4397.282145
4451.029266
4437.173101
4416.158106
4442.600663
4457.492412
4410.499042
4403.295286
4418.800297
4380.131057
4435.522353
4435.667679
4392.501721
4440.508409
4415.486011
4428.292196
4453.991427
4444.408616
4416.003393
4352.354363
4460.101540
4388.354033
4419.222559
4439.198529
4428.397363
4429.094386
4444.049609
4414.271072
4439.292010
4427.667074
4428.553612
4450.523746
4409.034095
4410.362136
4414.952294
4444.343162
4414.257834
4398.594736
4469.327885
4407.257897
4467.881724
4486.902645
4417.212378
4440.535430
4435.708485
4418.958803
4424.082939
4425.412010
4437.439494
4454.989568
4460.997129
4463.558762
4490.816950
4454.597930
4432.632812
4432.770819
4437.646434
4409.989781
4440.760222
4426.347548
4422.956047
4426.281994
4411.657332
4416.941937
4451.618562
4417.660864
4453.562003
4421.039223
4433.563593
4357.715567
4413.917582
4485.817319
4571.746566
4390.277931
4379.164590
4426.315601
4419.492634
4448.201049
4455.038296
4410.530563
4443.070606
4426.770966
4405.275561
4406.041076
4446.995093
4427.383467
4435.214680
4432.052917
4419.084193
4447.139024
4394.904859
4442.372829
4419.453628
4429.404161
4410.583291
4452.132188
4429.787930
4429.664597
4419.744213
4448.107708
4440.397556
4523.344043
4342.996417
4326.744056
4460.234880
4392.100423
4415.757116
4431.302825
4436.372898
4478.635675
4446.645802
4441.902767
4436.272690
4397.610660
4422.454665
4412.780165
4431.451227
4431.154345
4428.039655
4427.148859
4426.368406
4436.077530
4439.830169
4388.010637
4421.580432
4452.613540
4449.551875
4425.683681
4452.261047
4397.665516
4434.891522
4425.085774
4406.419858
4486.195844
4471.736985
4421.970077
4406.135828
4428.099639
4451.498112
4406.092409
4369.822387
4461.777608
4467.448271
4422.295905
4404.616298
4432.659572
4429.591879
4433.701446
4422.267606
4436.771340
4439.481306
4431.579290
4425.326660
4393.689949
4449.653844
4439.357554
4416.147415
4432.342857
4426.877241
4407.449121
4444.174154
4423.332743
4433.633362
4398.100873
4470.713146
4378.360527
4393.722667
4419.012469
4422.226152
4439.344300
4441.030521
4398.469066
4469.727850
4441.343552
4398.300375
4466.571573
4426.331050
4438.984148
4429.149283
4428.588923
4431.800856
4422.831954
4424.677626
4435.182995
4429.605045
4408.625948
4421.444340
4438.658623
4434.104750
4439.967992
4442.445084
4419.448602
4412.064753
4450.040432
4388.789174
4434.199459
4423.372461
4436.527566
4387.425443
4423.127333
4434.234465
4437.419838
4443.317281
4417.672869
4475.194406
4476.398120
4412.756246
4422.681529
4420.705272
4426.847955
4429.421476
4424.183156
4423.189017
4440.942721
4406.611906
4447.187983
4418.417919
4431.891533
4420.983132
4418.728979
4417.825540
4435.618169
4417.082272
4424.604247
4447.341333
4382.411996
4469.804263
4426.264438
4552.874868
4377.462022
4466.087109
4419.754961
4436.126591
4446.493579
4381.237221
4464.169937
4393.050572
4411.585377
4416.125111
4421.063065
4429.623671
4432.768602
4429.336827
4429.204158
4418.807792
4450.663336
4405.564472
4422.096303
4381.368689
4442.488391
4450.467601
4434.598561
4425.609451
4438.900469
4432.738874
4432.914450
4466.917423
4473.888204
4388.562101
4385.271494
4436.088817
4417.113404
4431.596776
4461.194858
4439.263105
4405.813692
4430.317702
4452.019379
4458.875440
4423.869905
4410.583382
4433.232086
4427.746018
4424.700337
4440.062902
4412.572917
4448.454636
4409.175670
4425.788915
4434.475037
4425.122344
4418.279416
4421.745744
4456.564804
4424.695391
4392.615627
4469.244519
4422.261961
4402.554899
4395.825623
4461.388427
4414.788808
4449.913351
4420.186313
4431.511079
4434.137970
4389.278736
4374.636166
4451.753276
4356.158400
4425.973714
4443.042303
4428.702389
4433.804067
4429.210651
4433.489825
4428.595780
4401.113081
4443.226153
4426.015440
4406.292513
4442.095560
4398.875461
4433.823925
4454.574353
4417.841301
4394.375658
4452.745805
4415.828029
4415.974637
4452.602898
4450.828909
4429.330254
4423.980033
4418.643867
4456.953632
4409.240659
4431.375067
4475.818408
4341.999036
4487.051364
4388.730369
4419.418229
4427.207134
4428.310724
4431.376733
4411.245542
4441.122402
4441.766662
4425.860772
4416.015785
4407.566766
4437.512917
4421.250802
4438.847939
4396.074094
4437.988539
4431.115418
4418.748579
4415.298861
4446.387641
4399.809287
4433.203754
4424.193211
4410.766171
4437.728146
4421.584701
4441.893759
4464.451849
4427.266679
4401.444121
4447.342887
4437.527349
4444.052440
4427.094211
4424.264606
4435.924664
4440.579062
4405.472583
4423.127855
4413.071296
4442.613220
4439.617778
4423.700616
4434.052908
4434.572212
4440.153770
4452.296138
4385.793346
4454.083392
4400.823673
4456.680325
4435.586988
4472.288279
4412.333526
4422.330204
4458.849729
4419.180584
4434.567447
4452.349856
4426.904101
4463.463497
4423.029790
4420.388486
4433.749456
4434.695788
4441.250491
4409.912027
4438.069521
4435.651357
4436.581987
4437.876871
4417.283867
4410.567953
4445.798195
4437.927115
4441.075016
4434.243058
4427.688060
4436.288413
4431.463708
4406.334086
4449.346420
4362.460689
4427.154792
4430.946327
4415.462472
4457.572917
4435.687587
4430.581491
4394.419492
4448.003762
4423.658661
4447.553451
4410.277623
4420.527761
4423.946211
4438.773599
4419.036331
4433.858590
4408.235687
4432.894510
4408.595363
4452.781766
4433.786594
4438.481325
4404.881814
4462.732401
4399.797737
4406.062142
4397.290404
4448.939408
4431.589946
4459.047882
4421.444220
4436.579193
4428.577387
4432.841739
4422.783298
4397.100355
4423.108844
4445.458778
4416.779204
4409.399886
4471.009745
4408.776395
4442.748886
4425.080782
4432.454569
4431.951352
4438.308513
4422.023733
4447.049099
4423.112144
4426.242244
4397.067415
4450.888775
4395.111768
4417.284265
4429.512477
4445.090600
4424.213291
4450.734621
4407.707627
4455.223747
4420.958511
4435.004373
4412.401414
4424.514096
4428.661794
4429.335225
4418.709543
4419.622924
4419.652817
4444.856460
4415.802903
4404.302776
4431.219973
4433.524989
4429.682540
4414.928469
4427.801978
4431.336592
4421.518174
4429.407339
4434.855191
4424.901645
4425.264936
4433.507462
4440.125334
4428.583098
4437.326871
4394.178112
4444.491842
4403.511400
4452.106839
4428.770776
4431.721665
4408.174160
4431.683104
4416.012813
4431.726143
4472.055878
4399.758741
4409.615278
4446.222881
4410.397830
4434.967539
4406.989924
4427.921309
4423.448448
4440.732918
4440.613989
4433.432088
4425.281879
4433.533458
4424.845245
4439.171943
4419.250458
4413.435008
4437.889077
4435.188520
4403.607835
4428.983153
4423.693659
4424.929909
4374.486486
4370.919094
4460.512669
4429.101247
4405.510644
4422.808025
4409.662546
4452.415256
4426.331190
4408.270679
4464.797717
4421.951285
4421.780778
4446.487610
4432.755600
4426.624799
4429.101178
4404.241238
4436.421249
4421.992708
4434.814536
4432.446362
4409.611536
4441.299231
4463.898744
4407.948566
4440.746012
4438.500343
4438.269438
4396.597568
4420.737553
4496.659823
4468.250151
4426.287454
4435.429825
4435.818078
4438.654009
4418.690361
4423.920691
4417.518830
4435.587045
4417.062984
4434.748296
4413.118073
4435.789418
4430.557829
4432.336530
4435.300603
4443.239052
4438.877577
4433.047583
4422.184085
4439.480861
4445.820294
4409.246291
4409.287794
4434.589878
4450.231658
4405.972258
4436.391616
4459.168137
4386.346787
4452.114498
4404.552977
4386.681106
4431.085427
4435.392816
4428.603019
4389.908997
4472.385678
4398.455068
4416.704088
4418.208437
4473.546359
4354.045278
4414.542236
4432.918203
4433.827125
4419.325575
4426.636665
4406.913018
4449.967707
4437.104689
4400.160936
4417.623755
4448.909562
4451.476421
4418.765605
4406.074424
4467.489271
4438.022556
4435.535207
4390.539449
4390.268232
4466.561189
4456.410742
4440.644984
4405.710407
4405.474979
4428.907484
4442.797092
4442.676099
4373.749872
4473.274834
4431.148338
4463.163887
4417.131640
4434.300643
4435.898705
4430.455973
4438.407520
4443.974911
4416.297385
4409.746523
4452.932331
4424.470450
4407.575705
4399.606004
4453.401825
4436.512042
4413.226735
4398.972675
4441.489775
4460.754670
4448.359536
4334.271684
4471.050378
4464.187382
4436.653705
4472.674080
4425.465886
4443.686372
4458.241751
4440.318090
4424.819782
4401.137261
4405.536254
4438.979505
4431.021789
4433.485258
4420.015424
4415.783098
4418.351365
4441.304030
4433.192443
4419.196664
4400.456470
4466.036101
4426.707922
4419.179988
4414.601044
4439.962111
4406.332941
4446.121046
4376.522398
4445.663265
4315.024229
4502.983304
4438.517862
4416.825354
4432.480381
4488.079251
4423.847117
4440.483562
4399.136998
4476.822484
4353.991854
4434.810751
4448.918967
4431.815979
4435.570150
4426.332603
4444.670258
4420.420586
4430.817630
4420.358096
4440.448558
4431.904639
4401.611803
4420.760335
4440.104760
4407.979774
4466.784565
4382.896974
4457.498066
4395.713490
4477.525252
4475.494146
4503.644184
4411.667942
4416.414913
4383.312133
4438.124603
4405.012986
4438.237620
4450.485358
4447.550586
4445.611899
4350.113736
4454.459399
4426.700213
4431.133869
4420.958240
4427.941597
4408.852882
4428.278212
4424.481549
4408.123806
4433.945057
4450.424049
4433.147554
4442.071392
4415.789080
4415.092848
4440.042994
4432.003894
4433.937763
4423.114472
4433.301504
4504.203618
4450.362347
4434.308265
4439.929050
4422.371746
4391.520874
4459.567175
4415.914168
4438.278082
4440.043954
4442.349244
4411.272919
4425.495193
4426.709992
4439.452615
4431.231308
4432.836054
4436.360508
4445.375120
4443.551463
4389.818648
4405.593899
4445.711291
4464.158028
4419.042835
4395.872837
4404.863540
4417.493492
4459.194842
4401.971477
4385.605981
4430.152175
4393.052510
4415.643432
4425.205168
4435.030326
4407.712160
4446.218666
4385.367358
4395.616325
4477.641546
4469.944431
4408.634610
4429.680577
4431.417564
4413.754230
4425.765571
4440.422299
4417.192000
4398.494294
4432.290157
4441.846999
4420.086370
4462.007471
4429.228437
4443.280066
4441.366112
4449.519395
4475.244946
4379.710672
4441.161112
4440.907248
4446.304026
4430.199428
4426.589955
4425.401872
4452.482070
4443.150356
4463.387597
4468.513295
4441.550782
4381.880303
4417.240319
4399.445922
4432.297801
4421.545133
4442.760344
4442.615351
4405.404368
4443.279236
4445.865199
4452.024394
4425.327682
4412.721735
4439.756646
4406.266871
4399.717988
4423.221457
4424.048831
4420.276214
4443.792580
4425.459183
4452.978910
4430.849558
4429.387816
4440.715976
4436.441311
4423.928395
4429.422367
4446.400465
4416.260536
4492.009863
4399.074550
4452.603769
4427.301472
4429.518905
4428.787778
4412.896943
4430.591766
4432.933832
4413.933021
4408.926095
4423.584692
4432.148109
4450.408811
4388.382140
4466.697896
4415.276156
4440.558428
4399.662882
4447.652171
4402.830272
4387.781149
4422.468056
4461.935531
4437.407090
4426.171439
4460.110160
4427.446983
4418.417274
4439.629711
4428.474340
4444.345849
4350.544254
4390.562794
4403.265971
4416.640833
4432.624817
4438.145301
4402.033193
4455.991175
4404.158937
4419.180744
4447.438250
4415.412805
4400.940746
4409.162908
4443.326407
4417.560984
4413.198727
4437.637421
4432.423263
4465.405482
4378.279228
4427.711550
4429.557904
4425.258018
4416.641646
4426.480870
4424.963297
4443.449775
4466.001854
4442.679065
4365.890969
4448.904012
4472.024562
4414.715736
4426.346711
4427.813611
4423.077922
4453.791185
4404.620835
4433.530787
4459.921115
4457.995676
4442.358443
4432.698336
4408.589497
4435.233110
4457.411917
4422.813142
4434.616245
4403.623697
4405.658466
4446.865198
4362.564580
4422.659260
4432.357615
4435.411486
4424.104552
4446.504079
4410.787522
4410.608779
4399.810696
4373.926238
4450.625884
4400.650200
4432.094409
4433.032936
4432.816474
4411.397487
4444.935212
4410.134314
4420.467759
4401.758674
4436.853035
4437.363161
4405.111618
4418.032368
4421.525772
4419.793446
4381.453025
4418.594763
4465.467741
4388.628073
4453.674077
4462.940139
4456.141575
4430.414234
4432.252117
4431.517154
4414.714793
4453.346395
4420.047258
4461.272931
4472.201615
4464.987007
4432.026173
4402.106173
4420.378194
4440.194815
4426.880867
4407.486911
4437.072103
4443.944126
4420.599926
4446.188083
4429.321641
4432.769353
4455.009636
4417.083377
4423.372538
4428.170852
4446.021222
4419.913693
4417.446589
4444.581576
4393.790329
4470.358296
4440.635044
4434.782947
4406.273108
4445.283848
4415.872090
4459.155761
4390.757991
4423.218952
4331.194760
4399.510072
4403.706690
4435.673597
4416.062602
4438.293410
4437.707725
4414.931811
4428.648727
4417.541988
4412.321448
4413.160195
4431.516120
4435.064528
4437.426235
4405.521831
4445.891031
4459.618463
4415.994881
4400.828442
4474.244883
4373.578294
4437.626336
4412.616328
4406.140399
4443.982558
4402.106072
4431.852003
4461.342875
4441.111630
4397.264473
4403.079126
4468.541850
4446.366106
4434.324902
4422.866989
4426.738969
4434.166616
4427.489922
4417.928964
4452.629145
4443.968334
4421.263740
4432.726346
4436.979417
4422.845067
4424.801194
4426.328912
4457.946838
4412.220372
4424.240634
4455.274331
4436.928358
4330.833042
4400.252390
4425.260910
4419.690768
4438.435696
4454.580913
4474.082258
4408.755790
4442.467078
4449.277369
4403.071635
4362.573885
4422.152488
4438.358919
4433.675240
4410.375935
4440.239629
4433.765670
4407.442374
4427.057612
4421.932573
4417.026516
4428.014121
4428.527121
4431.421704
4398.682535
4452.625044
4376.865844
4423.839020
4463.713448
4392.925867
4525.430440
4393.939185
4430.677388
4415.816600
4433.631739
4431.497520
4446.247562
4441.881095
4423.573740
4499.758476
4451.258377
4419.818958
4430.156031
4429.947524
4420.193016
4428.254394
4426.423441
4435.771613
4451.927170
4427.252387
4433.852647
4425.953947
4411.948758
4420.624866
4403.998498
4450.513171
4435.322198
4447.984909
4432.644419
4418.192782
4431.733693
4425.525130
4475.022138
4445.196201
4460.702649
4423.039610
4464.266211
4474.158856
4422.263435
4427.492136
4469.384130
4432.843928
4482.046015
4434.150285
4427.099331
4432.092088
4435.816799
4406.532180
4431.598718
4395.542191
4449.544198
4420.669095
4416.452497
4444.928071
4416.151164
4431.978840
4434.950794
4400.526359
4444.376272
4412.701941
4417.903871
4413.153300
4443.209643
4444.418286
4438.337125
4459.238149
4464.675339
4449.527652
4433.630775
4367.270978
4390.930410
4380.204472
4348.414719
4395.304549
4428.967209
4432.365244
4419.665690
4417.409898
4441.748264
4445.809046
4422.414152
4429.715343
4436.573841
4453.575612
4420.013829
4447.770755
4426.910599
4424.313510
4458.067332
4410.066509
4407.397290
4448.272644
4414.702437
4431.097422
4445.023641
4416.353434
4437.610318
4429.946963
4466.040681
4451.163423
4360.204671
4462.847585
4482.560637
4395.835332
4445.480392
4430.814646
4424.074427
4435.378600
4423.933557
4422.159542
4409.048174
4419.965865
4430.541509
4481.008892
4422.010768
4417.931652
4431.190670
4422.187656
4443.271004
4403.724773
4437.869990
4427.455253
4443.349774
4385.599570
4411.967683
4418.143010
4434.877758
4382.966262
4436.798701
4370.206936
4400.510644
4457.183504
4472.318678
4472.866514
4390.789283
4423.821453
4431.867205
4420.528774
4423.312962
4429.426674
4453.637764
4450.652592
4414.212461
4413.687609
4398.613773
4420.452820
4400.860774
4446.437161
4435.897042
4418.306684
4448.038598
4420.241019
4425.460687
4462.431347
4476.827616
4377.483076
4425.580960
4418.686232
4435.429229
4412.365568
4400.912183
4443.986360
4396.791363
4467.785750
4449.250326
4412.744428
4407.946630
4421.483257
4440.700593
4424.180259
4427.479572
4424.783599
4419.198411
4422.635448
4445.355973
4413.463918
4424.391222
4427.453601
4444.670248
4406.582341
4439.580935
4416.661127
4397.712579
4448.740835
4456.282186