# vtk DataFile Version 2.0
mfree iwf
ASCII

DATASET UNSTRUCTURED_GRID
POINTS 6231 float
0.000000 0.000300 0.000000
0.000000 0.000310 0.000000
0.000000 0.000320 0.000000
0.000000 0.000330 0.000000
0.000000 0.000340 0.000000
0.000001 0.000350 0.000000
0.000001 0.000360 0.000000
0.000001 0.000370 0.000000
0.000001 0.000381 0.000000
0.000001 0.000391 0.000000
0.000001 0.000401 0.000000
0.000001 0.000411 0.000000
0.000001 0.000421 0.000000
0.000002 0.000431 0.000000
0.000002 0.000441 0.000000
0.000002 0.000451 0.000000
0.000002 0.000461 0.000000
0.000002 0.000471 0.000000
0.000002 0.000480 0.000000
0.000002 0.000492 0.000000
0.000006 0.000501 0.000000
0.000213 0.000571 0.000000
0.000213 0.000633 0.000000
0.000213 0.000587 0.000000
0.000213 0.000648 0.000000
0.000215 0.000671 0.000000
0.000227 0.000719 0.000000
0.000229 0.000723 0.000000
0.000238 0.000734 0.000000
0.000245 0.000746 0.000000
0.000267 0.000779 0.000000
0.000010 0.000300 0.000000
0.000010 0.000310 0.000000
0.000010 0.000320 0.000000
0.000010 0.000330 0.000000
0.000010 0.000340 0.000000
0.000011 0.000350 0.000000
0.000011 0.000360 0.000000
0.000011 0.000370 0.000000
0.000011 0.000380 0.000000
0.000011 0.000390 0.000000
0.000011 0.000400 0.000000
0.000011 0.000411 0.000000
0.000011 0.000420 0.000000
0.000012 0.000431 0.000000
0.000012 0.000440 0.000000
0.000012 0.000451 0.000000
0.000012 0.000460 0.000000
0.000012 0.000472 0.000000
0.000014 0.000478 0.000000
0.000010 0.000492 0.000000
0.000013 0.000498 0.000000
0.000223 0.000686 0.000000
0.000226 0.000698 0.000000
0.000230 0.000707 0.000000
0.000234 0.000713 0.000000
0.000245 0.000729 0.000000
0.000249 0.000737 0.000000
0.000257 0.000750 0.000000
0.000261 0.000759 0.000000
0.000264 0.000766 0.000000
0.000264 0.000773 0.000000
0.000020 0.000300 0.000000
0.000020 0.000310 0.000000
0.000020 0.000320 0.000000
0.000020 0.000330 0.000000
0.000021 0.000340 0.000000
0.000020 0.000350 0.000000
0.000021 0.000360 0.000000
0.000021 0.000370 0.000000
0.000020 0.000380 0.000000
0.000022 0.000391 0.000000
0.000021 0.000400 0.000000
0.000022 0.000410 0.000000
0.000021 0.000420 0.000000
0.000022 0.000431 0.000000
0.000021 0.000440 0.000000
0.000024 0.000451 0.000000
0.000021 0.000460 0.000000
0.000022 0.000470 0.000000
0.000021 0.000481 0.000000
0.000024 0.000494 0.000000
0.000020 0.000497 0.000000
0.000224 0.000653 0.000000
0.000226 0.000678 0.000000
0.000227 0.000691 0.000000
0.000233 0.000699 0.000000
0.000250 0.000708 0.000000
0.000247 0.000722 0.000000
0.000258 0.000740 0.000000
0.000262 0.000754 0.000000
0.000273 0.000762 0.000000
0.000278 0.000769 0.000000
0.000030 0.000300 0.000000
0.000030 0.000310 0.000000
0.000030 0.000320 0.000000
0.000030 0.000330 0.000000
0.000030 0.000340 0.000000
0.000031 0.000350 0.000000
0.000030 0.000360 0.000000
0.000031 0.000371 0.000000
0.000031 0.000380 0.000000
0.000031 0.000390 0.000000
0.000031 0.000400 0.000000
0.000032 0.000411 0.000000
0.000031 0.000420 0.000000
0.000032 0.000430 0.000000
0.000032 0.000440 0.000000
0.000031 0.000450 0.000000
0.000032 0.000459 0.000000
0.000037 0.000473 0.000000
0.000030 0.000478 0.000000
0.000033 0.000488 0.000000
0.000032 0.000498 0.000000
0.000063 0.000500 0.000000
0.000233 0.000678 0.000000
0.000238 0.000692 0.000000
0.000243 0.000713 0.000000
0.000260 0.000719 0.000000
0.000254 0.000726 0.000000
0.000265 0.000734 0.000000
0.000268 0.000742 0.000000
0.000275 0.000751 0.000000
0.000286 0.000763 0.000000
0.000040 0.000300 0.000000
0.000040 0.000310 0.000000
0.000040 0.000320 0.000000
0.000040 0.000331 0.000000
0.000040 0.000340 0.000000
0.000040 0.000350 0.000000
0.000041 0.000360 0.000000
0.000041 0.000370 0.000000
0.000041 0.000380 0.000000
0.000041 0.000390 0.000000
0.000042 0.000400 0.000000
0.000041 0.000410 0.000000
0.000042 0.000420 0.000000
0.000040 0.000431 0.000000
0.000043 0.000439 0.000000
0.000043 0.000450 0.000000
0.000043 0.000460 0.000000
0.000037 0.000470 0.000000
0.000045 0.000478 0.000000
0.000043 0.000497 0.000000
0.000040 0.000498 0.000000
0.000213 0.000530 0.000000
0.000244 0.000678 0.000000
0.000248 0.000690 0.000000
0.000250 0.000699 0.000000
0.000254 0.000708 0.000000
0.000269 0.000721 0.000000
0.000277 0.000738 0.000000
0.000284 0.000744 0.000000
0.000284 0.000753 0.000000
0.000293 0.000759 0.000000
0.000050 0.000300 0.000000
0.000050 0.000310 0.000000
0.000050 0.000319 0.000000
0.000050 0.000330 0.000000
0.000051 0.000340 0.000000
0.000050 0.000350 0.000000
0.000052 0.000360 0.000000
0.000049 0.000371 0.000000
0.000052 0.000380 0.000000
0.000050 0.000390 0.000000
0.000053 0.000400 0.000000
0.000049 0.000411 0.000000
0.000053 0.000420 0.000000
0.000051 0.000430 0.000000
0.000054 0.000440 0.000000
0.000048 0.000451 0.000000
0.000055 0.000459 0.000000
0.000053 0.000470 0.000000
0.000055 0.000482 0.000000
0.000049 0.000488 0.000000
0.000050 0.000498 0.000000
0.000222 0.000670 0.000000
0.000219 0.000626 0.000000
0.000250 0.000687 0.000000
0.000263 0.000701 0.000000
0.000268 0.000712 0.000000
0.000271 0.000727 0.000000
0.000281 0.000722 0.000000
0.000284 0.000733 0.000000
0.000293 0.000745 0.000000
0.000301 0.000752 0.000000
0.000060 0.000300 0.000000
0.000060 0.000310 0.000000
0.000061 0.000321 0.000000
0.000059 0.000331 0.000000
0.000062 0.000339 0.000000
0.000058 0.000350 0.000000
0.000062 0.000359 0.000000
0.000060 0.000370 0.000000
0.000063 0.000380 0.000000
0.000059 0.000390 0.000000
0.000064 0.000400 0.000000
0.000059 0.000410 0.000000
0.000064 0.000419 0.000000
0.000058 0.000431 0.000000
0.000067 0.000440 0.000000
0.000061 0.000448 0.000000
0.000066 0.000459 0.000000
0.000056 0.000471 0.000000
0.000065 0.000476 0.000000
0.000068 0.000486 0.000000
0.000059 0.000496 0.000000
0.000219 0.000662 0.000000
0.000235 0.000670 0.000000
0.000260 0.000684 0.000000
0.000265 0.000690 0.000000
0.000271 0.000703 0.000000
0.000279 0.000712 0.000000
0.000290 0.000724 0.000000
0.000294 0.000733 0.000000
0.000301 0.000739 0.000000
0.000309 0.000746 0.000000
0.000070 0.000300 0.000000
0.000070 0.000310 0.000000
0.000070 0.000319 0.000000
0.000070 0.000329 0.000000
0.000070 0.000341 0.000000
0.000069 0.000350 0.000000
0.000072 0.000360 0.000000
0.000068 0.000371 0.000000
0.000073 0.000379 0.000000
0.000070 0.000390 0.000000
0.000073 0.000400 0.000000
0.000069 0.000411 0.000000
0.000075 0.000421 0.000000
0.000068 0.000429 0.000000
0.000075 0.000437 0.000000
0.000066 0.000453 0.000000
0.000079 0.000459 0.000000
0.000072 0.000470 0.000000
0.000076 0.000486 0.000000
0.000068 0.000496 0.000000
0.000076 0.000496 0.000000
0.000213 0.000516 0.000000
0.000234 0.000661 0.000000
0.000251 0.000672 0.000000
0.000271 0.000691 0.000000
0.000281 0.000701 0.000000
0.000289 0.000709 0.000000
0.000293 0.000718 0.000000
0.000302 0.000724 0.000000
0.000309 0.000734 0.000000
0.000316 0.000740 0.000000
0.000080 0.000300 0.000000
0.000080 0.000310 0.000000
0.000080 0.000320 0.000000
0.000081 0.000331 0.000000
0.000080 0.000340 0.000000
0.000082 0.000349 0.000000
0.000079 0.000360 0.000000
0.000081 0.000369 0.000000
0.000082 0.000381 0.000000
0.000079 0.000391 0.000000
0.000083 0.000399 0.000000
0.000080 0.000410 0.000000
0.000083 0.000418 0.000000
0.000080 0.000431 0.000000
0.000086 0.000445 0.000000
0.000077 0.000448 0.000000
0.000084 0.000465 0.000000
0.000075 0.000470 0.000000
0.000088 0.000472 0.000000
0.000085 0.000483 0.000000
0.000084 0.000496 0.000000
0.000218 0.000651 0.000000
0.000213 0.000625 0.000000
0.000260 0.000675 0.000000
0.000272 0.000679 0.000000
0.000283 0.000693 0.000000
0.000291 0.000700 0.000000
0.000301 0.000707 0.000000
0.000308 0.000719 0.000000
0.000316 0.000727 0.000000
0.000324 0.000733 0.000000
0.000090 0.000300 0.000000
0.000090 0.000310 0.000000
0.000090 0.000320 0.000000
0.000090 0.000329 0.000000
0.000090 0.000340 0.000000
0.000091 0.000351 0.000000
0.000090 0.000360 0.000000
0.000092 0.000370 0.000000
0.000089 0.000379 0.000000
0.000092 0.000389 0.000000
0.000091 0.000401 0.000000
0.000091 0.000411 0.000000
0.000090 0.000422 0.000000
0.000095 0.000429 0.000000
0.000089 0.000436 0.000000
0.000098 0.000456 0.000000
0.000088 0.000453 0.000000
0.000099 0.000472 0.000000
0.000106 0.000480 0.000000
0.000089 0.000495 0.000000
0.000095 0.000495 0.000000
0.000213 0.000537 0.000000
0.000234 0.000654 0.000000
0.000227 0.000643 0.000000
0.000245 0.000665 0.000000
0.000284 0.000684 0.000000
0.000300 0.000695 0.000000
0.000306 0.000709 0.000000
0.000315 0.000713 0.000000
0.000323 0.000721 0.000000
0.000331 0.000727 0.000000
0.000100 0.000300 0.000000
0.000100 0.000310 0.000000
0.000100 0.000320 0.000000
0.000100 0.000331 0.000000
0.000101 0.000340 0.000000
0.000100 0.000349 0.000000
0.000101 0.000359 0.000000
0.000100 0.000370 0.000000
0.000101 0.000380 0.000000
0.000102 0.000391 0.000000
0.000099 0.000400 0.000000
0.000102 0.000408 0.000000
0.000102 0.000418 0.000000
0.000101 0.000434 0.000000
0.000109 0.000443 0.000000
0.000096 0.000446 0.000000
0.000107 0.000461 0.000000
0.000097 0.000465 0.000000
0.000094 0.000481 0.000000
0.000107 0.000491 0.000000
0.000101 0.000494 0.000000
0.000213 0.000591 0.000000
0.000213 0.000604 0.000000
0.000213 0.000619 0.000000
0.000281 0.000678 0.000000
0.000293 0.000685 0.000000
0.000300 0.000689 0.000000
0.000312 0.000700 0.000000
0.000320 0.000702 0.000000
0.000328 0.000714 0.000000
0.000338 0.000720 0.000000
0.000110 0.000300 0.000000
0.000110 0.000310 0.000000
0.000110 0.000320 0.000000
0.000110 0.000329 0.000000
0.000110 0.000340 0.000000
0.000111 0.000351 0.000000
0.000111 0.000361 0.000000
0.000110 0.000370 0.000000
0.000112 0.000379 0.000000
0.000109 0.000390 0.000000
0.000113 0.000399 0.000000
0.000111 0.000412 0.000000
0.000116 0.000423 0.000000
0.000106 0.000426 0.000000
0.000113 0.000436 0.000000
0.000107 0.000450 0.000000
0.000116 0.000461 0.000000
0.000111 0.000471 0.000000
0.000117 0.000480 0.000000
0.000111 0.000493 0.000000
0.000119 0.000492 0.000000
0.000213 0.000549 0.000000
0.000213 0.000552 0.000000
0.000236 0.000644 0.000000
0.000257 0.000665 0.000000
0.000256 0.000656 0.000000
[...]
POINT_DATA 6231
SCALARS density float 1
LOOKUP_TABLE default
4394.608692
4424.712526
4419.564425
4418.345782
4423.216590
4423.843046
4423.325571
4425.955180
4429.918964
4429.032796
4424.520617
4428.459915
4428.120570
4429.346851
4430.188942
4440.184149
4422.519505
4432.256067
4412.728050
4423.374079
4411.439004
4630.547851
4443.077528
4467.166182
4428.287753
4440.274917
4414.579965
4441.272226
4428.429075
4449.485530
4417.836814
4404.459286
4420.138795
4419.877948
4422.229121
4427.488778
4425.776686
4422.476594
4424.617737
4424.013989
4424.882577
4423.617581
4435.083636
4425.788500
4436.344240
4416.401193
4427.246865
4411.231073
4442.943666
4462.033227
4461.285330
4414.861162
4412.518626
4399.102573
4420.155639
4456.225436
4412.428339
4405.092138
4416.747884
4408.871793
4423.990436
4461.461248
4410.122855
4420.389507
4423.375235
4425.922651
4417.461292
4417.298526
4429.528963
4433.966997
4416.247880
4436.053676
4427.243461
4429.221181
4413.084907
4439.523487
4416.606661
4473.277378
4399.140248
4451.521459
4351.986404
4450.311021
4419.331757
4432.832590
4412.818286
4398.511979
4444.872919
4449.345146
4451.298046
4451.964655
4424.100869
4447.294223
4398.456182
4412.645572
4425.602077
4423.787767
4416.238640
4430.451029
4435.980263
4419.756786
4424.233866
4422.375632
4436.457332
4406.989166
4442.702362
4423.608824
4446.438871
4400.006068
4433.410749
4391.018485
4460.004137
4368.421176
4554.607254
4372.147206
4427.440817
4481.751430
4466.142447
4352.703814
4377.786882
4463.469518
4422.608493
4434.625051
4463.226104
4444.698747
4425.173789
4429.560824
4423.753303
4433.677319
4425.414848
4422.038238
4420.150956
4438.247670
4422.183603
4432.770163
4415.702664
4447.972453
4396.208387
4441.308270
4415.494937
4449.963807
4384.026468
4506.631495
4313.863761
4418.289540
4385.343720
4584.007222
4350.185085
4446.558837
4364.537123
4493.646191
4454.509820
4404.728291
4439.862232
4360.883361
4434.220129
4432.505980
4422.752990
4418.705953
4438.473774
4411.468132
4440.324666
4425.559411
4432.654913
4412.140828
4442.459760
4420.604203
4435.221784
4414.596305
4463.329023
4366.844629
4477.476643
4355.189928
4483.113633
4368.977255
4538.843997
4378.330355
4419.715266
4417.394189
4483.246618
4393.426143
4400.092999
4440.283235
4402.488242
4405.393729
4451.302313
4412.679937
4418.271503
4430.734822
4430.807631
4427.555985
4430.170577
4441.909361
4411.089678
4433.271858
4432.326899
4428.738157
4425.134139
4440.081901
4420.966300
4427.217513
4420.010087
4462.165958
4409.391176
4509.231799
4360.098787
4490.416031
4427.444421
4411.946976
4411.732304
4434.552871
4442.418127
4451.240569
4440.229612
4463.587981
4427.983858
4410.078940
4437.792177
4419.151026
4434.723932
4424.882895
4413.651017
4441.733166
4417.400917
4447.345419
4433.532150
4410.258379
4425.278218
4422.265002
4421.638274
4431.779371
4432.617523
4459.099149
4464.106728
4432.915594
4450.573161
4448.139783
4408.992445
4381.825052
4649.889595
4457.008960
4469.086411
4454.159533
4470.427453
4413.260053
4423.047630
4427.542532
4415.431038
4418.646814
4426.348691
4424.701658
4419.605034
4440.491409
4429.409434
4412.059264
4444.109299
4408.336194
4442.127732
4435.373594
4411.667586
4425.142244
4432.247796
4406.949772
4478.618521
4377.788369
4467.710683
4443.293703
4369.752230
4470.077629
4407.615924
4430.124143
4536.807737
4402.513949
4448.297001
4390.046163
4433.080566
4444.149738
4441.597144
4430.870230
4425.908824
4429.463167
4434.707793
4437.445562
4427.421586
4413.391561
4442.603302
4413.615168
4435.911159
4453.956641
4390.955644
4449.152847
4411.012795
4413.599783
4458.720574
4411.114102
4390.225297
4430.959514
4425.714867
4429.294523
4420.367489
4407.428295
4477.195099
4430.771135
4417.955674
4455.624806
4445.204617
4457.852323
4467.750325
4397.498944
4423.063898
4421.931408
4430.223024
4425.647951
4416.034724
4431.100068
4441.330919
4432.661827
4420.224728
4425.996283
4411.813236
4443.713248
4445.188670
4410.133770
4429.347238
4403.392108
4447.594709
4426.705682
4422.868613
4458.068573
4435.607949
4429.797621
4415.934732
4449.877150
4575.114715
4372.547142
4443.837393
4465.386211
4454.000308
4428.038977
4452.135297
4429.557417
4406.572219
4426.913009
4430.524860
4440.105022
4432.439671
4415.155423
4415.609089
4436.567088
4440.303141
4418.731455
4446.872879
4386.235446
4458.295795
4389.756093
4432.931179
4429.582059
4441.743238
4460.874544
4398.607794
4467.248461
4407.540145
4413.171415
4476.685829
4568.475477
4451.387023
4431.062526
4416.590792
4420.803907
4463.967389
4459.420046
4417.111162
4415.052096
4440.139969
4425.902313
4424.740891
4415.558027
4434.452548
4449.142021
4407.509091
4426.592495
4421.118967
4430.913631
4427.502415
4449.053368
4425.461870
4444.578650
4401.332858
4370.343135
4426.835466
4392.580179
4410.756770
4440.384831
4398.947933
4471.586839
4357.201141
4471.203511
4461.450054
4428.769341
4369.991398
4447.574734
4375.538325
4431.731509
4406.734642
4427.850916
4426.005497
4431.149782
4443.765423
4422.686771
4409.899005
4437.901563
4427.121306
4437.898491
4416.466666
4421.644443
4402.752901
4424.724804
4445.135389
4400.455509
4456.013694
4429.076689
4453.080761
4478.475418
4424.860951
4430.677144
4412.181969
4479.672802
4363.024676
4431.189879
4410.429101
4415.308439
4469.349677
4440.007460
4464.720150
4409.429658
4420.713316
4446.192958
4441.547936
4401.510889
4428.161997
4429.833585
4441.851638
4403.436958
4432.405129
4413.039883
4431.854353
4436.339343
4427.348639
4399.954832
4451.675679
4392.337940
4389.501339
4492.692472
4571.993261
4390.926530
4370.811412
4405.709599
4445.081356
4446.036260
4529.319534
4380.100786
4451.857017
4438.307160
4459.013620
4421.092473
4435.733057
4436.512853
4426.990462
4413.036490
4446.558721
4447.659039
4402.189260
4422.259415
4433.765782
4431.662635
4410.516323
4441.127737
4392.175644
4443.527586
4416.113369
4432.205760
4405.351786
4484.044899
4362.901712
4334.198690
4500.311922
4398.248039
4431.705460
4447.794265
4430.098546
4439.580342
4389.722194
4430.412262
4413.501921
4427.876922
4409.223489
4413.195873
4430.905151
4423.077220
4441.043168
4444.899253
4399.681981
4445.522226
4434.211993
4412.534675
4419.785017
4423.757447
4428.573330
4435.289679
4432.432307
4394.084380
4428.319067
4433.011300
4410.358834
4484.567707
4482.891918
4426.090811
4409.272212
4382.186807
4456.962246
4451.609030
4461.246234
4442.691277
4458.587400
4445.845303
4415.782676
4450.317642
4416.590043
4431.149203
4426.417233
4429.031220
4398.194840
4446.692001
4453.022250
4396.246341
4441.490622
4417.854060
4438.520993
4397.323713
4420.925052
4417.797325
4451.554013
4410.162334
4427.017111
4401.796213
4487.261466
4322.831098
4365.773449
4426.319756
4458.137993
4482.202681
4477.563355
4418.615121
4482.652060
4488.028076
4403.334456
4408.115562
4418.478910
4422.200627
4425.547824
4423.500472
4428.900706
4442.955228
4438.035434
4393.123392
4448.056172
4452.258082
4388.399634
4440.751226
4414.980307
4445.356552
4405.684207
4444.549249
4390.953165
4463.552959
4355.717411
4466.420262
4428.429914
4449.653270
4389.124297
4609.301850
4446.324949
4485.671357
4512.519054
4407.553215
4425.566556
4440.151240
4420.650491
4463.113657
4417.547595
4422.104012
4442.973036
4429.964570
4417.421651
4406.078532
4447.037856
4447.747550
4388.129460
4454.322048
4423.597177
4388.672483
4431.978175
4407.773527
4423.726283
4421.131969
4442.089676
4428.041434
4460.253224
4409.092918
4609.042293
4345.910723
4520.027082
4539.663091
4450.394851
4425.510888
4386.582100
4474.351735
4436.803140
4456.128931
4434.378386
4426.354049
4435.562693
4430.730250
4409.391552
4440.594311
4443.823314
4419.561404
4396.207995
4446.576872
4450.698888
4397.513510
4457.807845
4422.522524
4409.283098
4431.020811
4432.451323
4394.590978
4416.821204
4460.952943
4362.427912
4393.613632
4424.945037
4440.155614
4442.708725
4481.766959
4445.018067
4426.203387
4476.437378
4439.012317
4447.821322
4400.723491
4412.969215
4426.801641
4420.869273
4443.678651
4441.705029
4397.581140
4427.571821
4445.049458
4435.393313
4382.830655
4443.156807
4440.307774
4386.609942
4450.228881
4415.039418
4409.746154
4460.634911
4424.445097
4427.214855
4458.887513
4440.848219
4477.987723
4433.972054
4450.401952
4453.456816
4452.936722
4453.918712
4445.577527
4447.762900
4445.516083
4397.106293
4417.773848
4428.289719
4427.368897
4431.438636
4404.060078
4450.444528
4448.415365
4396.184078
4410.691357
4446.379096
4451.749692
4382.321527
4452.658567
4411.523759
4428.540591
4440.242510
4414.710777
4409.756659
4436.345897
4444.052133
4436.322158
4517.630057
4459.625660
4477.485607
4451.274630
4446.960818
4464.302894
4454.861312
4437.108254
4464.558347
4413.475904
4451.927736
4424.636267
4425.852911
4420.947634
4439.177891
4438.287166
4394.294026
4449.455128
4448.463821
4398.632533
4397.710309
4449.911491
4452.776090
4371.480431
4453.642672
4397.047095
4436.250914
4413.022258
4403.263224
4433.272173
4446.631662
4447.711539
4434.861484
4497.708110
4486.369258
4476.183952
4435.786380
4446.049835
4450.320873
4441.995434
4414.460218
4436.705245
4420.527594
4443.750401
4432.609502
4424.296142
4404.963384
4444.888346
4445.311775
4387.844002
4438.153922
4447.240275
4419.727941
4386.074980
4449.336648
4426.740040
4391.675014
4451.932657
4417.789183
4438.251672
4446.396011
4438.318232
4455.865209
4443.417126
4477.901501
4429.229625
4456.138207
4471.002946
4418.671806
4454.460018
4431.999610
4415.352304
4409.936463
4437.493384
4430.202480
4407.486798
4438.148861
4441.903707
4422.579899
4393.731597
4452.805480
4453.240521
4385.460713
4410.643836
4442.557088
4439.191002
4385.397811
4442.932907
4381.485892
4438.935900
4421.649891
4432.193299
4431.850605
4443.859503
4475.665134
4452.235720
4467.997237
4449.724154
4456.746090
4479.244111
4452.526868
4462.543102
4420.630859
4419.109433
4430.067489
4422.213363
4446.870794
4444.443534
4402.533677
4429.542783
4445.931153
4426.757458
4388.447535
4448.967121
4454.519250
4393.270988
4395.576369
4440.020862
4438.243949
4389.037721
4449.050945
4424.326112
4429.272713
4450.046556
4429.546708
4434.364825
4457.911225
4434.439043
4456.655169
4447.128568
4400.564314
4462.146308
4427.618664
4394.522420
4399.432200
4425.494298
4429.780126
4434.224599
4402.041381
4451.498783
4446.828440
4402.996572
4412.561747
4447.685203
4440.758781
4385.188302
4436.535096
4451.461830
4420.095145
4411.471041
4434.942110
4427.071938
4419.912538
4437.950521
4405.917230
4437.442408
4465.149903
4463.537784
4423.984452
4461.241672
4438.091981
4438.384645
4441.710504
4448.322697
4469.718868
4390.505975
4429.559087
4429.794215
4424.413735
4439.638932
4449.024554
4393.874465
4449.991540
4447.054685
4406.171343
4399.771113
4451.303805
4450.860232
4384.398637
4410.495519
4428.370862
4449.252628
4403.761589
4437.555877
4435.840595
4444.807068
4440.900418
4426.319511
4448.738164
4427.998275
4453.477967
4457.909001
4435.496394
4456.731546
4430.038720
4438.577090
4491.296361
4427.979460
4434.894348
4433.586241
4425.600284
4403.883852
4442.669985
4454.704965
4389.492067
4445.375043
4449.866126
4407.054668
4401.739484
4450.729689
4456.377556
4409.683961
4417.386173
4428.782403
4414.973361
4434.312632
4426.728559
4442.107391
4429.991243
4432.488285
4435.260727
4467.714387
4452.366178
4461.960273
4439.473491
4456.091946
4445.808631
4458.953632
4435.226627
4430.038930
4420.906157
4430.382437
4450.128690
4434.483999
4389.148804
4447.912121
4445.290644
4395.532317
4440.523468
4437.482584
4425.432596
4384.326839
4432.113442
4435.162763
4420.632437
4429.378781
4432.991320
4431.276659
4435.016544
4418.264818
4446.644709
4442.473537
4424.632532
4433.832474
4424.609431
4426.216779
4465.027418
4451.851111
4388.237503
4440.165857
4422.397458
4443.661134
4438.514610
4406.793351
4422.479207
4446.794271
4445.536757
4397.027744
4441.022383
4450.736539
4396.759461
4418.778895
4453.512312
4447.108683
4396.563628
4428.576677
4412.527842
4416.275240
4423.351518
4438.217959
4450.501613
4424.454024
4438.523594
4459.963223
4445.748828
4482.313222
4471.233305
4397.950288
4459.224606
4479.523918
4424.269776
4426.729972
4431.548974
4417.156792
4456.826317
4439.255161
4415.937769
4398.056449
4442.671968
4452.686237
4393.735748
4454.415715
4445.855434
4398.303629
4401.597285
4437.526662
4444.585827
4410.546169
4455.740301
4425.073131
4444.270682
4434.805185
4437.229366
4439.182740
4435.324278
4459.767399
4396.721323
4472.371515
4493.657429
4446.337487
4449.730674
4428.221102
4440.631970
4440.859607
4406.978883
4445.769714
4400.061691
4441.477979
4453.848830
4425.545982
4393.871127
4441.357451
4441.489641
4397.349056
4442.072462
4444.331117
4426.695636
4408.429632
4430.121129
4403.619207
4437.554918
4420.040304
4425.921555
4426.940872
4454.714764
4428.016896
4462.482101
4452.976942
4455.324949
4440.859013
4449.283058
4459.879450
4448.155544
4425.509078
4425.981578
4446.927120
4404.908787
4454.274694
4438.817684
4384.435670
4429.866714
4439.855506
4439.687499
4402.442977
4441.337986
4447.443917
4399.651382
4407.196432
4430.086765
4451.185902
4405.182865
4457.050084
4447.127738
4434.197487
4408.858521
4445.012710
4436.765610
4445.235829
4447.637222
4447.921371
4477.106463
4458.574962
4459.487811
4440.061732
4424.804762
4427.040761
4451.643758
4415.263817
4425.170918
4428.178350
4462.956458
4443.131668
4405.141180
4408.292363
4438.531340
4444.846118
4403.135166
4458.593480
4436.604887
4430.135567
4408.191766
4457.052308
4393.717413
4435.950099
4453.121476
4440.863522
4443.411793
4447.518005
4454.379047
4443.004832
4451.357734
4440.904605
4447.790228
4458.554743
4418.071452
4437.342104
4445.494710
4404.374044
4451.514976
4429.716193
4419.079306
4420.711684
4405.603364
4434.065514
4452.968490
4419.559990
4422.136924
4439.793438
4449.499365
4384.800070
4448.676737
4419.951165
4448.716191
4418.007301
4440.034017
4440.974505
4419.468706
4422.884535
4438.989130
4455.740785
4465.950968
4465.435859
4472.308249
4470.090618
4458.004873
4428.872096
4428.900010
4423.976625
4418.181031
4458.167183
4385.143389
4450.452149
4422.846225
4452.236205
4432.459073
4412.066377
4413.306964
4452.944938
4406.359112
4429.124929
4455.313783
4428.278783
4439.801013
4422.349822
4450.588396
4461.478715
4406.317649
4463.187029
4449.737249
4466.926342
4427.748523
4422.820753
4468.415641
4435.023639
4453.555921
4456.694631
4434.223471
4429.693431
4420.731595
4451.579203
4431.291691
4451.574568
4446.747668
4386.939672
4444.047771
4402.880341
4448.150812
4433.310071
4426.608180
4408.666898
4447.949935
4432.335892
4408.868681
4443.298966
4444.054193
4430.018282
4433.093962
4453.584834
4436.668240
4412.248591
4456.796220
4478.592427
4471.716112
4430.225516
4459.854746
4459.989562
4455.937441
4429.139587
4424.933511
4447.406929
4412.807464
4423.969981
4458.261640
4410.121862
4458.571429
4426.368734
4432.084994
4440.851807
4419.989339
4420.836433
4444.080235
4433.006881
4390.415373
4452.043480
4404.325768
4433.880797
4426.982785
4443.157665
4431.666398
4437.101376
4459.215996
4428.902174
4462.702259
4438.358337
4455.063576
4449.326628
4450.134609
4454.413531
4430.474269
4430.336002
4426.693646
4429.080972
4448.282858
4403.638854
4440.305467
4464.506091
4378.136315
4456.300918
4405.900438
4452.259435
4423.898896
4412.458403
4427.243573
4446.532706
4460.842126
4401.962560
4466.251543
4409.752874
4457.690257
4425.682500
4444.389601
4444.442366
4422.045005
4437.167664
4461.063046
4456.341741
4453.370194
4458.308364
4451.612431
4429.366562
4442.686768
4434.822495
4430.317863
4443.868550
4433.135264
4449.869114
4398.542779
4460.821197
4434.789316
4396.179435
4444.771215
4409.609409
4457.997005
4418.803138
4423.680366
4395.321225
4454.477440
4455.384794
4407.753825
4462.806025
4418.319898
4455.595464
4426.508291
4456.454329
4447.012766
4432.621659
4458.017834
4436.933703
4458.782596
4450.706349
4443.448566
4439.582680
4415.443645
4443.508636
4396.246355
4429.374167
4429.230406
4430.685009
4472.835534
4391.325124
4451.173293
4418.401371
4428.238128
4449.383894
4400.718222
4442.046682
4445.518736
4443.526877
4408.716178
4467.350042
4428.253708
4402.666196
4459.416574
4427.358851
4467.611348
4406.042845
4459.655630
4444.592562
4464.359602
4446.089131
4454.801462
4438.244491
4430.358278
4426.967376
4459.628957
4424.647883
4445.654950
4427.073966
4454.500867
4393.153883
4466.150724
4447.979906
4394.260962
4456.031770
4401.533795
4458.719732
4441.601936
4408.634961
4422.350942
4443.558720
4454.870901
4428.153140
4461.260831
4423.599988
4450.943896
4450.476481
4456.864894
4468.792067
4409.153961
4454.707605
4433.268323
4456.021691
4426.335220
4427.464508
4446.679841
4400.572914
4446.380388
4434.282115
4408.520929
4449.421808
4438.563641
4466.112183
4390.412523
4451.002530
4445.345201
4417.995570
4452.321826
4413.606848
4460.696742
4434.723884
4444.316884
4425.770192
4453.155342
4451.441815
4390.001042
4454.141474
4439.383511
4432.099963
4455.672137
4466.859276
4456.704696
4446.201090
4456.088093
4435.029957
4436.766951
4437.062427
4431.032119
4450.923114
4412.078525
4461.520521
4411.897467
4441.847849
4411.009865
4465.048545
4450.748280
4397.133611
4452.469531
4409.206633
4448.364029
4439.524050
4425.516574
4432.896509
4446.330500
4444.944909
4418.040008
4463.434926
4415.826218
4456.313727
4439.045472
4447.369370
4448.795232
4427.519802
4453.697531
4450.163956
4442.965223
4431.450861
4417.765039
4432.559697
4416.381425
4435.523481
4456.591259
4388.066417
4443.196181
4432.896617
4454.306882
4403.175041
4461.934419
4437.879678
4411.168975
4435.025961
4410.022066
4462.199502
4428.836572
4417.573622
4449.423025
4451.418095
4472.265655
4399.078760
4450.236065
4438.245901
4456.819342
4447.151135
4444.111157
4458.118807
4446.366713
4433.536964
4428.653741
4451.232735
4438.369000
4425.046956
4446.936307
4426.568313
4467.837042
4441.086837
4409.239213
4431.450510
4436.861617
4470.062525
4393.328464
4436.985239
4437.657330
4432.074466
4442.874163
4421.057691
4456.321950
4405.932594
4447.039534
4422.238309
4460.445290
4419.314416
4432.175251
4432.923523
4440.815613
4460.478834
4450.647608
4450.846447
4433.281759
4433.577257
4427.879762
4413.108670
4447.550392
4422.041334
4434.015705
4440.652145
4416.412785
4446.558893
4425.941644
4430.920804
4421.671559
4470.421212
4444.471294
4414.015740
4429.286376
4421.078748
4448.840795
4447.905066
4410.229720
4448.810878
4426.946245
4461.869786
4417.625955
4448.344247
4431.394615
4432.847250
4436.479155
4442.813919
4449.980344
4434.342615
4433.440788
4427.264732
4442.673422
4449.404615
4419.591836
4449.650088
4413.985529
4453.058347
4465.671072
4416.292856
4432.469882
4442.874659
4446.874029
4403.160153
4453.833664
4447.917908
4425.437214
4436.740408
4426.893690
4461.600326
4424.470333
4433.291463
4437.949196
4460.108011
4443.213629
4437.192615
4435.602340
4446.958141
4458.618670
4450.302372
4432.878244
4437.613488
4435.508377
4428.702817
4406.100792
4452.818130
4437.578666
4428.685688
4444.553694
4425.255086
4456.026730
4451.597653
4406.968654
4423.607739
4449.623849
4452.753132
4405.176462
4444.486355
4430.725659
4436.613801
4455.210967
4401.709102
4440.354050
4453.460921
4434.766729
4431.276452
4451.555747
4434.379428
4444.993428
4437.817264
4448.180275
4437.590130
4439.206787
4415.655252
4454.596396
4439.356993
4431.841762
4424.673358
4443.872688
4424.482111
4456.330896
4438.624781
4418.672975
4440.492732
4419.709059
4426.876431
4410.315197
4458.036923
4443.432793
4425.995186
4433.166775
4436.630929
4460.503479
4447.879188
4413.754025
4431.961380
4455.849726
4444.911393
4433.749416
4449.345790
4449.476021
4448.338537
4437.291884
4432.580651
4440.092903
4430.658720
4413.564328
4441.574788
4443.186028
4440.145862
4429.116246
4433.021516
4426.370218
4450.797958
4468.743738
4417.227621
4424.878030
4431.751554
4456.543185
4402.716581
4448.199287
4428.308091
4448.629881
4431.758918
4435.737699
4454.215192
4446.453423
4423.798959
4434.800487
4443.237438
4451.149780
4439.091278
4449.957165
4438.918938
4423.207692
4438.585341
4422.875528
4451.961957
4443.023746
4420.859456
4434.057513
4445.493248
4435.341080
4438.651968
4439.314566
4413.951690
4470.861853
4414.250058
4426.117014
4434.111028
4456.438584