# vtk DataFile Version 2.0
mfree iwf
ASCII

DATASET UNSTRUCTURED_GRID
POINTS 6231 float
0.000000 0.000300 0.000000
0.000000 0.000310 0.000000
0.000000 0.000320 0.000000
0.000000 0.000330 0.000000
0.000000 0.000340 0.000000
0.000000 0.000350 0.000000
0.000000 0.000360 0.000000
0.000001 0.000370 0.000000
0.000001 0.000380 0.000000
0.000001 0.000390 0.000000
0.000001 0.000400 0.000000
0.000001 0.000410 0.000000
0.000001 0.000420 0.000000
0.000001 0.000430 0.000000
0.000001 0.000440 0.000000
0.000001 0.000450 0.000000
0.000002 0.000460 0.000000
0.000002 0.000470 0.000000
0.000002 0.000480 0.000000
0.000001 0.000492 0.000000
0.000006 0.000501 0.000000
0.001003 0.001076 0.000000
0.001077 0.001111 0.000000
0.001020 0.001083 0.000000
0.001089 0.001116 0.000000
0.001111 0.001120 0.000000
0.001161 0.001124 0.000000
0.001169 0.001122 0.000000
0.001181 0.001116 0.000000
0.001193 0.001113 0.000000
0.001223 0.001114 0.000000
0.000010 0.000300 0.000000
0.000010 0.000310 0.000000
0.000010 0.000320 0.000000
0.000010 0.000330 0.000000
0.000010 0.000340 0.000000
0.000010 0.000350 0.000000
0.000010 0.000360 0.000000
0.000011 0.000370 0.000000
0.000011 0.000380 0.000000
0.000011 0.000390 0.000000
0.000011 0.000400 0.000000
0.000011 0.000410 0.000000
0.000011 0.000420 0.000000
0.000011 0.000430 0.000000
0.000011 0.000440 0.000000
0.000011 0.000450 0.000000
0.000012 0.000460 0.000000
0.000011 0.000472 0.000000
0.000013 0.000478 0.000000
0.000009 0.000492 0.000000
0.000013 0.000498 0.000000
0.001130 0.001116 0.000000
0.001146 0.001117 0.000000
0.001154 0.001118 0.000000
0.001160 0.001115 0.000000
0.001175 0.001109 0.000000
0.001187 0.001107 0.000000
0.001201 0.001103 0.000000
0.001212 0.001104 0.000000
0.001217 0.001101 0.000000
0.001220 0.001110 0.000000
0.000020 0.000300 0.000000
0.000020 0.000310 0.000000
0.000020 0.000320 0.000000
0.000020 0.000330 0.000000
0.000021 0.000340 0.000000
0.000020 0.000350 0.000000
0.000021 0.000360 0.000000
0.000021 0.000370 0.000000
0.000020 0.000380 0.000000
0.000021 0.000390 0.000000
0.000020 0.000400 0.000000
0.000022 0.000410 0.000000
0.000020 0.000420 0.000000
0.000022 0.000430 0.000000
0.000020 0.000440 0.000000
0.000023 0.000451 0.000000
0.000020 0.000460 0.000000
0.000022 0.000470 0.000000
0.000021 0.000482 0.000000
0.000024 0.000494 0.000000
0.000020 0.000497 0.000000
0.001097 0.001106 0.000000
0.001126 0.001112 0.000000
0.001137 0.001113 0.000000
0.001141 0.001111 0.000000
0.001151 0.001104 0.000000
0.001166 0.001107 0.000000
0.001192 0.001100 0.000000
0.001207 0.001099 0.000000
0.001214 0.001090 0.000000
0.001221 0.001087 0.000000
0.000030 0.000300 0.000000
0.000030 0.000310 0.000000
0.000030 0.000320 0.000000
0.000031 0.000330 0.000000
0.000030 0.000340 0.000000
0.000031 0.000350 0.000000
0.000030 0.000360 0.000000
0.000031 0.000370 0.000000
0.000030 0.000380 0.000000
0.000031 0.000390 0.000000
0.000031 0.000400 0.000000
0.000031 0.000410 0.000000
0.000031 0.000420 0.000000
0.000031 0.000430 0.000000
0.000031 0.000440 0.000000
0.000030 0.000450 0.000000
0.000031 0.000459 0.000000
0.000036 0.000473 0.000000
0.000029 0.000478 0.000000
0.000032 0.000488 0.000000
0.000032 0.000497 0.000000
0.000063 0.000500 0.000000
0.001118 0.001107 0.000000
0.001135 0.001098 0.000000
0.001161 0.001097 0.000000
0.001169 0.001090 0.000000
0.001177 0.001102 0.000000
0.001179 0.001094 0.000000
0.001191 0.001091 0.000000
0.001198 0.001089 0.000000
0.001220 0.001079 0.000000
0.000040 0.000300 0.000000
0.000040 0.000310 0.000000
0.000040 0.000320 0.000000
0.000040 0.000330 0.000000
0.000040 0.000340 0.000000
0.000040 0.000350 0.000000
0.000041 0.000359 0.000000
0.000040 0.000369 0.000000
0.000041 0.000380 0.000000
0.000040 0.000390 0.000000
0.000042 0.000399 0.000000
0.000041 0.000410 0.000000
0.000042 0.000420 0.000000
0.000040 0.000430 0.000000
0.000042 0.000439 0.000000
0.000043 0.000450 0.000000
0.000042 0.000460 0.000000
0.000037 0.000469 0.000000
0.000045 0.000477 0.000000
0.000043 0.000496 0.000000
0.000040 0.000498 0.000000
0.000900 0.000936 0.000000
0.001125 0.001099 0.000000
0.001143 0.001097 0.000000
0.001150 0.001091 0.000000
0.001160 0.001099 0.000000
0.001181 0.001085 0.000000
0.001201 0.001079 0.000000
0.001199 0.001069 0.000000
0.001210 0.001082 0.000000
0.001217 0.001070 0.000000
0.000050 0.000300 0.000000
0.000050 0.000310 0.000000
0.000050 0.000320 0.000000
0.000049 0.000330 0.000000
0.000051 0.000339 0.000000
0.000050 0.000349 0.000000
0.000051 0.000361 0.000000
0.000050 0.000371 0.000000
0.000052 0.000380 0.000000
0.000050 0.000390 0.000000
0.000052 0.000400 0.000000
0.000049 0.000410 0.000000
0.000053 0.000419 0.000000
0.000051 0.000430 0.000000
0.000053 0.000440 0.000000
0.000047 0.000451 0.000000
0.000054 0.000458 0.000000
0.000052 0.000469 0.000000
0.000055 0.000483 0.000000
0.000048 0.000488 0.000000
0.000050 0.000498 0.000000
0.001116 0.001114 0.000000
0.001071 0.001102 0.000000
0.001137 0.001089 0.000000
0.001150 0.001076 0.000000
0.001168 0.001080 0.000000
0.001183 0.001078 0.000000
0.001173 0.001073 0.000000
0.001192 0.001078 0.000000
0.001207 0.001070 0.000000
0.001213 0.001060 0.000000
0.000060 0.000300 0.000000
0.000060 0.000310 0.000000
0.000060 0.000321 0.000000
0.000060 0.000330 0.000000
0.000061 0.000340 0.000000
0.000059 0.000350 0.000000
0.000061 0.000359 0.000000
0.000060 0.000368 0.000000
0.000061 0.000380 0.000000
0.000059 0.000391 0.000000
0.000062 0.000399 0.000000
0.000060 0.000409 0.000000
0.000063 0.000419 0.000000
0.000058 0.000430 0.000000
0.000065 0.000440 0.000000
0.000060 0.000449 0.000000
0.000065 0.000460 0.000000
0.000055 0.000471 0.000000
0.000064 0.000475 0.000000
0.000068 0.000485 0.000000
0.000058 0.000496 0.000000
0.001105 0.001113 0.000000
0.001116 0.001098 0.000000
0.001132 0.001080 0.000000
0.001149 0.001083 0.000000
0.001162 0.001071 0.000000
0.001164 0.001062 0.000000
0.001193 0.001060 0.000000
0.001184 0.001069 0.000000
0.001203 0.001059 0.000000
0.001210 0.001051 0.000000
0.000070 0.000300 0.000000
0.000070 0.000310 0.000000
0.000070 0.000319 0.000000
0.000070 0.000329 0.000000
0.000071 0.000340 0.000000
0.000070 0.000350 0.000000
0.000072 0.000359 0.000000
0.000068 0.000373 0.000000
0.000081 0.000376 0.000000
0.000070 0.000390 0.000000
0.000073 0.000400 0.000000
0.000068 0.000411 0.000000
0.000074 0.000421 0.000000
0.000068 0.000429 0.000000
0.000075 0.000438 0.000000
0.000066 0.000451 0.000000
0.000077 0.000458 0.000000
0.000073 0.000470 0.000000
0.000076 0.000486 0.000000
0.000068 0.000495 0.000000
0.000076 0.000496 0.000000
0.000891 0.000915 0.000000
0.001105 0.001101 0.000000
0.001125 0.001089 0.000000
0.001144 0.001060 0.000000
0.001160 0.001081 0.000000
0.001175 0.001062 0.000000
0.001185 0.001060 0.000000
0.001178 0.001051 0.000000
0.001198 0.001050 0.000000
0.001206 0.001042 0.000000
0.000080 0.000300 0.000000
0.000080 0.000310 0.000000
0.000081 0.000321 0.000000
0.000079 0.000331 0.000000
0.000081 0.000340 0.000000
0.000080 0.000351 0.000000
0.000082 0.000362 0.000000
0.000074 0.000369 0.000000
0.000075 0.000383 0.000000
0.000080 0.000392 0.000000
0.000089 0.000397 0.000000
0.000079 0.000410 0.000000
0.000086 0.000417 0.000000
0.000079 0.000431 0.000000
0.000086 0.000445 0.000000
0.000077 0.000448 0.000000
0.000086 0.000464 0.000000
0.000074 0.000470 0.000000
0.000087 0.000473 0.000000
0.000085 0.000482 0.000000
0.000083 0.000495 0.000000
0.001096 0.001112 0.000000
0.001067 0.001107 0.000000
0.001128 0.001068 0.000000
0.001138 0.001075 0.000000
0.001152 0.001066 0.000000
0.001158 0.001054 0.000000
0.001168 0.001053 0.000000
0.001188 0.001048 0.000000
0.001195 0.001041 0.000000
0.001202 0.001032 0.000000
0.000090 0.000300 0.000000
0.000090 0.000310 0.000000
0.000090 0.000319 0.000000
0.000090 0.000329 0.000000
0.000091 0.000341 0.000000
0.000089 0.000349 0.000000
0.000092 0.000361 0.000000
0.000089 0.000369 0.000000
0.000092 0.000379 0.000000
0.000089 0.000387 0.000000
0.000084 0.000404 0.000000
0.000093 0.000410 0.000000
0.000087 0.000425 0.000000
0.000096 0.000426 0.000000
0.000090 0.000435 0.000000
0.000098 0.000455 0.000000
0.000087 0.000453 0.000000
0.000099 0.000472 0.000000
0.000106 0.000480 0.000000
0.000089 0.000495 0.000000
0.000094 0.000495 0.000000
0.000909 0.000952 0.000000
0.001099 0.001095 0.000000
0.001088 0.001102 0.000000
0.001118 0.001088 0.000000
0.001136 0.001056 0.000000
0.001162 0.001045 0.000000
0.001176 0.001043 0.000000
0.001182 0.001037 0.000000
0.001191 0.001032 0.000000
0.001198 0.001024 0.000000
0.000100 0.000300 0.000000
0.000100 0.000310 0.000000
0.000100 0.000321 0.000000
0.000099 0.000331 0.000000
0.000102 0.000339 0.000000
0.000099 0.000350 0.000000
0.000102 0.000360 0.000000
0.000100 0.000371 0.000000
0.000101 0.000381 0.000000
0.000100 0.000391 0.000000
0.000101 0.000400 0.000000
0.000103 0.000406 0.000000
0.000101 0.000418 0.000000
0.000100 0.000436 0.000000
0.000109 0.000443 0.000000
0.000095 0.000445 0.000000
0.000107 0.000461 0.000000
0.000095 0.000465 0.000000
0.000094 0.000481 0.000000
0.000106 0.000491 0.000000
0.000101 0.000494 0.000000
0.001026 0.001087 0.000000
0.001035 0.001092 0.000000
0.001061 0.001104 0.000000
0.001141 0.001067 0.000000
0.001151 0.001052 0.000000
0.001152 0.001041 0.000000
0.001172 0.001034 0.000000
0.001163 0.001031 0.000000
0.001186 0.001026 0.000000
0.001193 0.001015 0.000000
0.000110 0.000300 0.000000
0.000110 0.000310 0.000000
0.000110 0.000319 0.000000
0.000110 0.000329 0.000000
0.000110 0.000341 0.000000
0.000112 0.000351 0.000000
0.000109 0.000359 0.000000
0.000113 0.000370 0.000000
0.000110 0.000378 0.000000
0.000110 0.000389 0.000000
0.000112 0.000400 0.000000
0.000110 0.000414 0.000000
0.000116 0.000422 0.000000
0.000105 0.000427 0.000000
0.000113 0.000432 0.000000
0.000106 0.000450 0.000000
0.000116 0.000461 0.000000
0.000110 0.000470 0.000000
0.000116 0.000480 0.000000
0.000111 0.000493 0.000000
0.000119 0.000492 0.000000
0.000972 0.001043 0.000000
0.000918 0.000972 0.000000
0.001093 0.001090 0.000000
0.001113 0.001077 0.000000
0.001102 0.001074 0.000000
[...]
POINT_DATA 6231
SCALARS density float 1
LOOKUP_TABLE default
4414.842291
4426.813695
4423.431850
4424.226177
4424.518186
4423.300623
4424.968021
4426.654329
4428.962184
4430.038026
4429.663998
4433.355465
4427.723500
4430.455260
4432.066763
4439.521265
4423.199661
4431.788581
4413.858680
4424.070635
4411.060893
4422.483976
4424.609240
4432.823771
4438.305034
4421.137568
4397.031719
4428.531902
4448.088135
4450.693942
4416.632415
4416.802305
4424.171737
4426.220198
4428.130304
4427.334204
4429.043091
4427.934492
4428.340361
4427.759792
4429.496568
4422.911215
4427.596462
4422.802632
4438.445153
4417.811956
4428.498061
4410.691191
4442.618077
4462.198378
4459.974215
4416.333494
4407.795895
4417.420223
4436.926355
4513.453516
4394.376587
4406.673485
4423.083855
4400.257755
4450.525819
4438.352082
4420.069355
4432.378161
4426.259361
4423.846513
4426.669317
4427.406677
4425.169702
4432.408910
4420.533744
4433.731873
4427.672500
4440.537721
4424.273707
4437.480961
4411.487150
4475.367787
4400.311701
4454.670527
4350.863421
4450.937977
4421.620269
4427.551556
4438.768249
4417.234333
4504.015661
4322.855477
4363.122631
4413.306141
4426.891290
4425.468947
4402.965675
4428.822960
4429.095646
4423.836608
4435.149885
4433.464587
4432.482459
4425.009899
4436.375493
4425.430451
4437.276204
4412.423214
4430.968736
4412.062620
4447.976048
4408.567628
4431.699420
4389.134195
4450.138328
4376.740022
4549.347615
4373.526178
4434.881981
4471.485267
4438.799818
4472.208126
4349.680832
4484.545523
4450.659881
4418.139045
4476.544543
4431.694459
4432.527496
4427.266492
4434.995848
4436.931775
4419.945607
4438.543501
4431.361554
4432.154238
4420.929955
4433.846291
4416.510463
4452.226220
4413.244833
4442.783944
4412.045052
4444.908449
4390.836934
4510.469585
4310.604166
4418.875513
4385.044639
4429.944693
4396.144225
4434.369228
4441.928389
4499.133489
4434.779643
4401.390676
4487.523803
4444.993550
4416.136599
4428.821889
4430.648678
4428.186377
4428.866587
4439.779211
4435.526841
4417.781978
4441.978266
4423.237514
4438.143918
4420.199129
4434.410561
4402.990302
4450.209741
4376.747725
4484.153064
4358.411231
4473.123129
4364.081290
4538.287824
4380.742694
4438.633943
4430.040062
4457.286271
4447.479159
4451.784598
4439.676601
4404.798795
4412.156647
4415.455899
4420.728653
4427.645300
4441.913175
4422.976933
4437.639446
4430.095553
4435.195087
4422.776627
4436.489350
4405.657881
4436.628132
4431.325005
4440.238890
4425.048695
4441.819433
4410.527460
4462.281344
4407.194340
4515.488579
4374.074499
4474.265447
4432.422818
4414.245544
4393.704175
4405.745777
4418.552541
4452.282065
4425.329297
4420.306303
4406.167196
4412.703824
4433.997738
4432.612831
4429.179437
4421.784041
4437.882616
4407.166870
4442.412028
4422.634814
4420.718791
4406.571089
4452.438099
4382.479841
4433.687131
4409.079216
4435.411928
4441.127052
4459.835785
4434.811423
4450.140839
4454.923420
4414.042185
4385.560256
4436.004239
4461.506194
4438.927601
4408.853780
4392.043416
4425.712578
4451.625923
4438.403746
4438.630540
4414.306037
4430.265323
4425.452227
4431.946851
4418.088795
4424.177442
4434.273857
4418.976916
4448.982794
4428.270033
4440.799155
4418.231150
4437.170575
4424.058280
4436.187130
4452.565313
4396.948541
4457.847629
4450.200933
4359.352827
4469.893496
4408.783342
4429.354658
4415.463380
4434.769769
4431.274718
4393.826814
4450.919316
4435.890292
4402.070976
4437.475803
4437.145756
4427.468211
4428.940466
4434.897989
4410.144579
4437.684528
4428.290148
4428.123912
4446.364066
4433.952278
4425.064960
4448.615624
4399.388618
4426.534595
4455.019303
4415.796761
4377.458433
4431.433020
4402.502345
4440.178177
4424.062771
4414.428265
4427.771156
4417.166048
4437.695735
4483.244711
4396.539933
4382.964928
4435.378524
4440.551841
4431.199173
4412.295599
4429.160952
4429.992369
4420.753605
4444.711369
4431.377972
4413.470638
4445.020704
4401.701901
4450.436638
4417.824245
4437.697337
4449.596633
4424.261549
4395.057942
4452.114828
4461.874308
4422.750337
4477.063824
4422.656078
4430.841196
4417.796248
4426.131826
4434.790604
4427.189890
4456.204489
4465.123184
4381.895113
4408.803526
4471.083754
4452.801907
4423.846805
4425.679674
4436.648582
4436.120553
4417.794708
4427.964503
4423.676007
4440.319286
4430.717905
4428.350609
4425.519124
4410.612949
4432.243667
4407.856490
4451.870400
4417.735783
4429.694936
4476.204615
4417.558883
4453.797636
4400.085559
4410.533640
4438.199084
4437.729539
4411.143332
4383.168251
4398.118246
4453.199860
4457.886991
4407.164270
4423.988665
4453.221182
4432.156393
4427.719154
4425.335539
4433.927669
4434.212005
4427.362012
4407.674873
4442.855210
4397.112751
4449.077600
4441.139506
4414.829523
4460.740339
4456.281986
4411.209321
4396.965042
4426.739130
4379.216718
4434.231375
4439.936574
4389.339487
4441.756280
4414.659976
4428.674157
4454.092058
4439.707052
4417.764691
4346.953273
4459.727071
4387.728559
4418.214489
4437.953407
4433.850044
4428.342494
4436.589848
4412.147211
4445.974308
4431.118836
4424.951540
4450.468469
4410.404067
4413.588278
4394.348950
4428.980906
4425.022723
4395.635224
4463.173653
4410.365587
4464.751570
4488.317822
4418.667609
4439.378462
4435.984650
4420.027107
4423.561423
4421.423303
4436.970716
4462.838145
4461.869013
4465.187493
4497.070541
4454.194444
4432.818815
4435.780471
4427.041704
4428.048689
4439.092435
4416.832492
4426.005966
4410.845534
4417.808387
4411.814359
4450.184990
4423.336985
4458.231819
4409.432386
4441.032104
4357.392213
4416.975105
4489.323244
4571.855417
4389.650733
4381.642195
4426.389083
4419.938170
4448.754128
4454.848671
4406.079546
4440.108473
4426.372942
4404.468816
4404.166895
4448.307699
4427.366326
4432.731856
4437.121955
4418.242538
4432.447697
4406.504014
4437.339668
4435.673383
4436.205051
4405.682214
4451.730218
4404.074516
4446.961619
4412.278658
4449.000715
4443.480204
4523.520195
4341.918317
4323.367269
4463.613363
4392.493116
4416.165067
4430.575425
4436.061984
4480.989883
4446.157462
4442.367790
4434.749367
4400.024873
4423.449730
4412.521992
4433.017619
4425.190868
4434.175583
4418.533988
4441.546222
4433.498754
4416.307576
4385.344493
4427.000197
4443.440024
4445.413745
4436.054982
4454.500641
4409.733015
4432.595599
4413.865156
4410.215452
4486.639612
4475.604290
4420.533150
4404.692928
4428.902652
4450.608550
4404.388622
4370.804013
4461.832526
4463.927893
4419.938388
4406.054754
4432.309847
4429.049782
4438.073377
4417.740288
4440.955720
4434.909451
4428.883362
4409.610741
4429.409364
4449.032737
4438.193179
4412.758909
4438.916472
4418.351526
4405.959723
4448.742707
4407.364320
4434.338255
4400.609180
4470.239036
4376.640633
4391.586411
4418.699207
4421.091713
4440.441765
4440.162284
4399.664079
4467.866888
4443.494917
4398.585926
4467.245943
4428.984603
4438.913780
4430.179228
4425.219956
4437.959735
4416.515846
4438.268174
4437.818272
4418.677237
4388.418499
4439.523626
4433.907801
4424.143631
4455.682414
4447.210791
4419.109579
4426.658872
4441.680330
4389.264474
4432.979400
4425.627809
4436.027172
4385.631482
4423.403895
4434.691730
4437.422325
4444.227190
4414.835689
4477.811293
4481.201556
4413.619024
4419.898920
4420.402113
4427.095415
4427.303620
4428.411510
4417.212231
4440.797058
4405.612228
4449.949471
4448.547985
4429.258803
4409.215863
4418.032184
4412.323870
4441.620389
4425.581487
4412.838167
4447.582316
4378.288918
4471.214671
4425.520551
4553.987450
4376.697994
4465.128557
4420.628679
4436.652115
4447.943379
4380.334523
4464.337513
4388.065767
4412.204739
4410.306903
4420.468034
4431.952828
4432.251764
4428.866644
4433.693379
4419.295088
4451.290577
4405.226764
4404.746964
4397.693049
4438.838837
4453.570374
4441.765556
4417.498765
4435.169974
4439.626444
4438.359015
4469.607444
4481.810315
4387.704982
4385.764541
4435.053022
4416.442420
4430.400699
4462.109347
4437.398178
4407.738796
4433.060016
4451.964097
4457.165479
4423.897220
4410.122126
4431.933407
4428.575784
4423.400752
4438.031798
4413.988551
4447.475712
4412.041037
4431.442635
4440.575820
4405.187269
4424.091971
4416.485910
4456.560384
4432.598199
4388.554523
4464.694492
4423.469669
4409.110677
4391.854012
4462.057274
4415.473801
4448.869593
4420.382731
4429.673357
4431.286527
4390.368949
4372.618651
4450.051532
4356.015379
4428.203309
4443.930829
4425.988846
4438.145601
4430.708295
4434.271828
4429.839643
4400.680643
4440.564921
4412.818731
4407.337610
4451.574514
4406.103493
4432.322871
4457.771962
4418.511202
4391.484973
4452.687090
4417.361108
4410.732047
4446.134414
4450.080960
4429.041848
4424.575451
4421.196248
4460.264978
4411.930867
4435.521058
4478.327391
4342.776990
4486.240824
4386.116562
4418.584739
4431.791367
4429.401422
4425.927834
4416.025422
4440.691949
4442.018141
4425.739016
4422.153319
4403.821249
4441.801347
4411.312928
4440.244438
4399.128324
4427.336583
4425.625083
4431.079873
4411.127429
4452.787562
4403.094112
4430.286248
4423.245741
4414.193578
4443.742710
4419.370694
4444.901706
4467.654996
4422.632423
4396.895723
4447.508017
4438.811462
4444.279216
4428.436060
4423.743498
4438.927388
4445.072063
4405.438105
4429.572853
4403.848321
4448.855505
4435.169870
4418.920858
4441.767052
4427.630939
4439.706281
4449.252860
4389.037967
4456.961935
4404.862591
4452.603112
4437.254196
4469.167281
4416.230653
4422.579784
4456.089794
4422.846552
4433.318957
4454.185596
4427.823633
4463.248788
4425.308738
4420.547456
4433.744780
4434.424286
4443.341806
4409.910211
4436.882968
4431.433070
4434.857794
4440.629381
4415.392536
4418.098231
4432.720676
4445.184525
4452.259332
4439.589889
4420.999013
4442.181483
4444.734885
4393.398448
4453.808297
4364.797032
4427.804830
4430.400605
4414.458541
4455.109799
4434.041801
4436.740589
4391.880603
4446.783564
4423.147935
4445.132233
4409.256744
4419.306991
4423.333408
4439.913881
4414.985162
4436.613272
4424.844906
4421.389635
4416.972001
4446.048456
4428.206823
4445.579998
4392.300145
4465.952164
4393.021530
4403.513677
4396.824238
4445.423609
4428.755770
4462.466891
4421.325614
4434.848785
4428.880137
4433.818466
4424.181142
4390.598428
4419.821996
4441.879163
4420.039485
4408.798941
4472.915115
4408.982766
4442.797078
4422.799463
4431.975500
4438.195155
4434.976388
4412.841436
4458.177345
4416.557850
4430.839772
4401.569661
4446.428277
4409.732305
4411.169481
4421.297625
4443.962645
4428.936093
4461.116138
4401.336665
4465.896710
4417.073933
4439.831822
4414.153611
4423.545060
4431.683552
4429.054967
4413.653579
4422.685300
4416.509340
4448.994570
4414.206354
4401.200282
4431.866807
4436.287408
4430.409856
4410.019702
4439.702583
4426.856740
4424.977686
4418.569977
4442.117696
4417.684042
4422.587540
4431.634933
4448.487596
4432.886591
4439.653047
4395.090347
4448.673940
4395.128063
4456.349452
4424.632767
4431.915034
4409.469679
4432.238357
4416.461308
4432.711312
4475.310354
4398.329509
4414.243187
4442.122125
4411.114832
4436.397303
4406.091204
4427.693681
4427.311446
4437.520915
4439.910113
4425.999274
4424.720392
4436.409162
4419.559867
4435.935349
4435.044335
4410.786019
4440.129461
4421.831408
4423.203220
4419.521223
4434.490995
4409.888851
4373.609133
4394.483008
4463.961204
4431.856918
4413.444647
4421.021284
4411.315263
4452.732756
4435.063167
4405.226421
4466.217051
4422.978919
4422.226059
4446.950884
4432.637897
4425.664286
4432.457009
4403.904150
4444.284961
4424.861169
4431.370692
4437.546979
4406.487842
4438.486583
4453.259203
4410.906054
4438.662103
4450.416896
4421.992051
4406.387504
4418.150481
4485.379398
4454.744713
4434.616640
4439.001921
4438.253161
4441.742658
4419.492339
4424.418154
4419.295594
4436.923243
4420.291223
4434.178807
4414.908497
4433.747344
4431.881375
4430.399229
4435.558210
4441.161770
4435.930110
4426.361271
4419.831231
4443.865729
4442.566526
4419.437522
4414.699539
4436.810656
4446.815412
4404.370523
4436.887459
4457.889592
4387.475978
4448.807717
4395.164230
4394.701217
4428.078225
4435.786262
4427.564196
4391.406721
4468.220304
4395.159661
4430.173681
4414.239050
4466.592480
4352.899254
4414.585600
4431.046142
4433.894706
4420.973394
4427.498546
4409.728924
4456.073024
4439.763838
4403.992663
4409.256136
4445.502678
4443.077381
4414.943270
4412.230101
4458.467144
4441.300562
4433.070933
4394.742586
4392.253636
4462.919058
4455.159282
4441.419799
4405.254847
4402.905653
4426.715231
4443.184614
4444.398749
4376.203264
4464.418068
4430.488956
4463.291606
4416.392356
4433.058149
4438.636115
4427.117407
4437.479646
4443.834450
4409.822938
4405.809024
4454.801851
4433.899757
4414.934257
4410.133964
4452.289624
4433.741340
4418.128899
4399.151276
4432.363560
4467.931908
4451.252677
4329.620339
4469.473965
4462.244678
4435.945796
4477.799756
4426.535050
4442.677159
4461.048412
4438.400942
4410.096796
4405.615650
4402.491809
4437.964377
4432.229628
4432.644549
4418.196625
4417.647709
4421.702099
4449.330646
4429.750365
4413.522379
4402.859454
4462.001069
4413.090384
4426.580860
4414.778101
4447.342381
4406.266193
4452.246365
4372.357226
4450.420655
4318.133468
4496.900393
4437.612663
4418.312871
4428.410626
4485.649966
4422.348291
4445.404619
4398.015061
4477.118479
4362.060055
4434.290575
4449.345604
4428.451086
4431.744779
4431.956283
4442.903121
4417.905626
4420.605109
4426.981820
4449.802396
4437.424417
4395.958486
4424.012027
4439.729349
4403.966989
4461.650636
4380.875319
4467.312349
4385.317714
4479.750974
4468.352108
4505.211850
4415.801442
4414.896953
4381.518272
4439.082332
4403.431621
4432.512807
4453.600722
4448.386842
4448.288286
4352.458496
4453.772740
4425.370974
4437.618710
4415.632614
4426.144909
4412.786075
4426.153887
4431.549738
4398.330840
4422.954481
4453.894914
4429.924254
4445.300335
4415.561995
4414.920443
4462.801078
4426.177638
4438.229721
4432.229975
4432.390611
4509.021665
4444.766028
4433.407396
4440.682269
4421.115219
4390.079590
4454.581276
4407.054657
4437.014539
4444.537119
4440.360812
4410.441537
4426.831376
4429.983412
4430.331974
4438.682548
4436.435979
4449.824708
4443.769992
4444.232570
4398.053738
4406.062859
4449.085905
4453.328200
4405.497674
4396.828971
4410.375158
4403.401163
4450.532115
4398.952449
4393.531154
4427.033346
4392.340277
4416.839723
4423.881722
4436.070504
4400.094750
4451.521433
4376.121946
4395.855944
4481.248318
4472.791015
4407.452729
4427.980196
4429.878687
4419.638061
4422.706205
4424.614082
4416.197838
4392.453827
4434.729019
4427.901948
4422.740481
4460.911277
4420.040946
4434.284822
4444.485109
4436.122282
4467.211272
4382.621574
4444.463422
4439.275559
4448.519524
4430.423284
4434.176945
4423.886221
4448.485197
4445.676947
4476.781834
4465.124223
4439.681245
4379.291183
4414.396920
4399.703173
4430.475741
4426.874344
4440.185825
4431.193268
4401.508413
4426.276414
4449.034567
4453.795468
4429.226171
4417.562348
4449.003057
4405.995662
4416.348597
4420.892480
4426.977509
4432.095354
4443.491112
4418.596844
4446.095717
4435.634665
4429.640821
4425.039604
4433.368145
4420.171736
4427.358991
4452.806111
4410.649727
4491.435354
4393.065589
4448.742777
4427.413902
4428.184673
4432.400576
4412.080912
4447.087610
4433.009454
4416.027593
4422.162530
4431.445308
4437.055094
4440.013624
4411.548349
4465.726623
4422.754342
4428.306867
4408.193208
4440.175467
4406.461044
4406.232461
4418.007589
4451.516690
4435.945925
4419.800035
4467.483059
4437.603621
4431.790112
4436.629219
4439.076811
4445.188847
4345.869635
4389.511707
4403.179465
4416.364869
4432.745307
4432.461139
4405.499645
4440.722441
4417.610290
4404.533512
4429.428038
4424.741414
4394.251785
4404.176617
4434.468241
4411.799728
4403.519177
4431.584553
4411.663296
4462.726799
4389.032206
4429.348235
4435.914002
4424.016591
4422.759871
4426.065993
4397.791783
4445.515693
4467.167645
4445.357005
4354.786362
4454.439839
4474.717090
4413.848861
4426.705848
4428.168352
4426.911808
4456.477306
4407.639140
4443.478586
4447.828674
4439.996490
4453.304252
4399.553825
4415.647066
4443.302103
4463.161447
4432.324423
4425.997873
4436.732339
4405.929267
4428.375373
4370.533274
4426.487123
4433.985710
4432.057816
4427.094092
4446.154594
4419.391745
4409.444472
4411.128046
4377.106606
4450.448574
4398.467132
4433.930955
4434.455704
4430.806719
4414.522356
4440.103886
4412.571656
4411.048956
4411.034873
4453.230855
4450.806279
4407.427660
4394.985665
4423.805796
4424.260693
4412.031209
4401.052965
4449.554356
4393.013994
4455.798651
4460.035456
4444.120098
4436.900802
4428.973361
4435.373772
4432.321014
4464.989163
4418.635585
4461.226369
4455.800434
4471.231289
4434.153809
4401.222193
4420.568864
4440.686916
4430.634785
4412.679644
4435.013119
4446.597037
4417.491301
4444.215800
4420.924550
4430.623992
4453.732170
4443.287864
4406.126319
4406.427134
4455.506309
4411.496205
4440.950107
4423.210317
4380.775223
4473.910960
4450.461638
4435.552895
4404.652792
4422.541099
4393.123448
4457.373305
4403.827978
4416.654564
4333.648318
4407.346330
4401.117102
4436.388171
4420.599365
4431.724278
4438.289761
4409.655652
4434.444943
4416.664246
4434.693705
4422.421827
4419.502158
4428.396901
4430.891488
4422.438312
4449.089984
4465.432904
4411.524390
4390.560987
4473.696222
4392.255908
4438.323573
4415.192330
4399.584342
4440.970511
4408.185545
4425.495994
4458.309298
4442.135629
4395.411508
4411.192759
4469.105243
4445.926569
4431.225718
4424.909213
4425.932817
4439.370818
4429.795310
4420.628331
4453.547481
4430.169769
4435.116971
4431.141173
4437.158754
4419.929414
4427.095078
4440.487770
4447.960535
4405.157762
4436.401141
4466.832696
4425.528322
4333.034810
4407.820930
4426.916675
4422.681534
4432.462144
4432.187791
4472.736627
4401.587545
4443.766489
4459.216562
4388.547215
4361.308178
4421.116560
4438.276311
4431.351511
4403.090026
4440.570877
4426.474114
4416.510973
4420.764739
4426.612108
4419.997080
4418.453838
4435.729818
4444.489631
4394.607158
4451.221866
4385.995364
4421.452617
4453.895210
4382.761810
4530.423998
4390.993778
4429.863381
4410.723255
4442.350471
4441.660332
4456.634360
4447.678121
4411.073613
4493.621530
4449.253574
4421.942069
4432.690932
4427.642249
4424.036819
4432.781609
4428.409709
4432.052846
4443.018551
4427.575488
4432.248323
4419.113105
4397.895600
4436.054887
4402.815103
4452.443719
4438.613056
4455.935981
4443.942493
4418.312538
4420.130743
4429.563934
4485.232397
4436.643492
4464.808387
4428.389947
4451.498539
4465.557383
4460.346304
4436.416955
4460.619945
4435.553995
4486.205516
4434.379228
4425.392445
4430.667626
4434.261076
4407.494243
4437.497086
4405.361889
4451.649674
4417.570958
4424.403117
4442.612869
4408.164437
4428.794752
4438.187111
4394.367386
4449.817897
4397.132984
4419.694579
4420.771312
4444.858757
4438.372237
4432.807981
4463.007823
4479.251372
4453.639914
4432.085315
4385.591546
4394.649700
4366.092341
4342.773699
4389.636698
4428.188365
4433.569440
4424.294629
4416.221538
4440.539267
4445.659225
4426.528685
4427.459766
4431.836168
4449.885684
4420.279843
4460.960660
4431.931903
4428.918817
4457.633465
4395.755256
4390.392921
4452.344975
4415.278401
4426.785472
4444.252118
4419.247356
4429.482146
4428.632620
4472.342476
4429.025524
4347.948906
4448.701518
4491.378448
4395.841299
4446.341728
4430.629961
4421.220601
4428.822731
4429.059631
4425.799673
4408.429942
4412.124064
4423.482649
4471.396319
4418.451473
4429.195938
4436.137137
4423.533891
4433.080936
4414.693335
4442.548091
4438.304319
4450.178531
4382.941576
4413.287863
4420.438373
4433.170067
4381.366359
4448.552423
4375.759866
4395.323387
4454.289816
4464.410955
4475.346554
4389.662165
4423.554124
4429.495474
4422.616515
4423.071177
4428.678881
4457.343612
4448.246412
4412.494573
4416.334793
4399.369608
4430.177163
4401.259833
4442.339813
4433.963518
4430.777669
4452.891245
4410.102328
4431.277149
4461.618781
4476.750248
4379.913046
4422.452704
4425.223874
4433.889238
4420.958914
4384.701437
4438.079490
4431.430988
4452.552515
4468.239835
4414.585818
4401.130431
4417.528015
4442.980185
4424.273925
4418.711950
4432.878563
4413.187134
4421.963991
4445.267454
4409.173995
4425.292698
4430.798074
4436.235885
4400.930435
4440.327933
4417.856710
4402.253656
4441.968588
4457.641883