# vtk DataFile Version 2.0
mfree iwf
ASCII

DATASET UNSTRUCTURED_GRID
POINTS 6231 float
0.000000 0.000300 0.000000
0.000000 0.000310 0.000000
0.000000 0.000320 0.000000
0.000000 0.000330 0.000000
0.000000 0.000340 0.000000
0.000001 0.000350 0.000000
0.000001 0.000361 0.000000
0.000001 0.000371 0.000000
0.000001 0.000381 0.000000
0.000001 0.000391 0.000000
0.000001 0.000401 0.000000
0.000001 0.000411 0.000000
0.000001 0.000421 0.000000
0.000002 0.000431 0.000000
0.000002 0.000441 0.000000
0.000002 0.000451 0.000000
0.000002 0.000461 0.000000
0.000002 0.000471 0.000000
0.000003 0.000480 0.000000
0.000002 0.000492 0.000000
0.000006 0.000501 0.000000
0.000186 0.000555 0.000000
0.000186 0.000609 0.000000
0.000186 0.000570 0.000000
0.000186 0.000621 0.000000
0.000186 0.000642 0.000000
0.000192 0.000692 0.000000
0.000193 0.000695 0.000000
0.000200 0.000708 0.000000
0.000205 0.000721 0.000000
0.000223 0.000757 0.000000
0.000010 0.000300 0.000000
0.000010 0.000310 0.000000
0.000010 0.000320 0.000000
0.000010 0.000330 0.000000
0.000010 0.000340 0.000000
0.000011 0.000350 0.000000
0.000011 0.000360 0.000000
0.000011 0.000370 0.000000
0.000011 0.000380 0.000000
0.000011 0.000390 0.000000
0.000011 0.000400 0.000000
0.000011 0.000411 0.000000
0.000011 0.000420 0.000000
0.000012 0.000431 0.000000
0.000012 0.000440 0.000000
0.000012 0.000451 0.000000
0.000012 0.000460 0.000000
0.000012 0.000472 0.000000
0.000014 0.000478 0.000000
0.000010 0.000492 0.000000
0.000013 0.000498 0.000000
0.000192 0.000658 0.000000
0.000193 0.000671 0.000000
0.000196 0.000680 0.000000
0.000199 0.000687 0.000000
0.000207 0.000705 0.000000
0.000210 0.000713 0.000000
0.000217 0.000727 0.000000
0.000219 0.000737 0.000000
0.000221 0.000743 0.000000
0.000220 0.000751 0.000000
0.000020 0.000300 0.000000
0.000020 0.000310 0.000000
0.000020 0.000320 0.000000
0.000020 0.000330 0.000000
0.000021 0.000340 0.000000
0.000020 0.000350 0.000000
0.000021 0.000360 0.000000
0.000021 0.000370 0.000000
0.000020 0.000380 0.000000
0.000022 0.000391 0.000000
0.000021 0.000400 0.000000
0.000022 0.000410 0.000000
0.000021 0.000420 0.000000
0.000022 0.000431 0.000000
0.000021 0.000440 0.000000
0.000023 0.000451 0.000000
0.000021 0.000460 0.000000
0.000022 0.000470 0.000000
0.000022 0.000481 0.000000
0.000024 0.000494 0.000000
0.000020 0.000497 0.000000
0.000198 0.000627 0.000000
0.000196 0.000651 0.000000
0.000195 0.000663 0.000000
0.000200 0.000673 0.000000
0.000215 0.000683 0.000000
0.000210 0.000697 0.000000
0.000218 0.000717 0.000000
0.000221 0.000731 0.000000
0.000230 0.000741 0.000000
0.000234 0.000749 0.000000
0.000030 0.000300 0.000000
0.000030 0.000310 0.000000
0.000030 0.000320 0.000000
0.000030 0.000330 0.000000
0.000030 0.000340 0.000000
0.000031 0.000350 0.000000
0.000030 0.000360 0.000000
0.000031 0.000370 0.000000
0.000031 0.000380 0.000000
0.000031 0.000390 0.000000
0.000031 0.000400 0.000000
0.000031 0.000411 0.000000
0.000031 0.000420 0.000000
0.000032 0.000431 0.000000
0.000032 0.000440 0.000000
0.000031 0.000451 0.000000
0.000032 0.000459 0.000000
0.000037 0.000473 0.000000
0.000030 0.000478 0.000000
0.000033 0.000488 0.000000
0.000032 0.000498 0.000000
0.000063 0.000500 0.000000
0.000204 0.000653 0.000000
0.000206 0.000667 0.000000
0.000209 0.000689 0.000000
0.000223 0.000696 0.000000
0.000218 0.000703 0.000000
0.000226 0.000713 0.000000
0.000229 0.000721 0.000000
0.000234 0.000731 0.000000
0.000243 0.000745 0.000000
0.000040 0.000300 0.000000
0.000040 0.000310 0.000000
0.000040 0.000320 0.000000
0.000041 0.000331 0.000000
0.000040 0.000340 0.000000
0.000040 0.000350 0.000000
0.000041 0.000360 0.000000
0.000041 0.000370 0.000000
0.000041 0.000380 0.000000
0.000041 0.000390 0.000000
0.000042 0.000400 0.000000
0.000041 0.000410 0.000000
0.000043 0.000420 0.000000
0.000040 0.000430 0.000000
0.000043 0.000439 0.000000
0.000043 0.000450 0.000000
0.000043 0.000460 0.000000
0.000037 0.000470 0.000000
0.000045 0.000478 0.000000
0.000043 0.000497 0.000000
0.000040 0.000498 0.000000
0.000186 0.000525 0.000000
0.000213 0.000653 0.000000
0.000217 0.000666 0.000000
0.000217 0.000676 0.000000
0.000221 0.000685 0.000000
0.000232 0.000700 0.000000
0.000237 0.000718 0.000000
0.000244 0.000725 0.000000
0.000243 0.000734 0.000000
0.000250 0.000741 0.000000
0.000050 0.000300 0.000000
0.000050 0.000310 0.000000
0.000050 0.000319 0.000000
0.000050 0.000329 0.000000
0.000051 0.000340 0.000000
0.000050 0.000350 0.000000
0.000052 0.000360 0.000000
0.000049 0.000370 0.000000
0.000052 0.000380 0.000000
0.000050 0.000390 0.000000
0.000053 0.000400 0.000000
0.000049 0.000410 0.000000
0.000053 0.000419 0.000000
0.000051 0.000430 0.000000
0.000054 0.000440 0.000000
0.000047 0.000451 0.000000
0.000055 0.000459 0.000000
0.000053 0.000470 0.000000
0.000055 0.000482 0.000000
0.000049 0.000488 0.000000
0.000050 0.000498 0.000000
0.000193 0.000642 0.000000
0.000196 0.000604 0.000000
0.000218 0.000664 0.000000
0.000229 0.000679 0.000000
0.000234 0.000691 0.000000
0.000234 0.000706 0.000000
0.000244 0.000701 0.000000
0.000245 0.000714 0.000000
0.000253 0.000727 0.000000
0.000259 0.000736 0.000000
0.000060 0.000300 0.000000
0.000060 0.000310 0.000000
0.000061 0.000321 0.000000
0.000059 0.000331 0.000000
0.000062 0.000340 0.000000
0.000058 0.000350 0.000000
0.000062 0.000359 0.000000
0.000059 0.000370 0.000000
0.000063 0.000380 0.000000
0.000059 0.000390 0.000000
0.000063 0.000400 0.000000
0.000059 0.000410 0.000000
0.000064 0.000420 0.000000
0.000058 0.000431 0.000000
0.000065 0.000439 0.000000
0.000062 0.000449 0.000000
0.000066 0.000460 0.000000
0.000056 0.000472 0.000000
0.000065 0.000476 0.000000
0.000069 0.000486 0.000000
0.000059 0.000496 0.000000
0.000192 0.000634 0.000000
0.000206 0.000645 0.000000
0.000229 0.000662 0.000000
0.000233 0.000670 0.000000
0.000237 0.000682 0.000000
0.000243 0.000693 0.000000
0.000252 0.000708 0.000000
0.000257 0.000716 0.000000
0.000261 0.000723 0.000000
0.000268 0.000731 0.000000
0.000070 0.000300 0.000000
0.000070 0.000310 0.000000
0.000070 0.000320 0.000000
0.000071 0.000329 0.000000
0.000070 0.000340 0.000000
0.000070 0.000350 0.000000
0.000072 0.000360 0.000000
0.000069 0.000371 0.000000
0.000073 0.000379 0.000000
0.000069 0.000390 0.000000
0.000073 0.000400 0.000000
0.000069 0.000410 0.000000
0.000074 0.000420 0.000000
0.000068 0.000430 0.000000
0.000076 0.000439 0.000000
0.000065 0.000452 0.000000
0.000078 0.000458 0.000000
0.000072 0.000470 0.000000
0.000076 0.000486 0.000000
0.000068 0.000496 0.000000
0.000076 0.000496 0.000000
0.000186 0.000512 0.000000
0.000207 0.000636 0.000000
0.000221 0.000650 0.000000
0.000239 0.000670 0.000000
0.000248 0.000682 0.000000
0.000254 0.000691 0.000000
0.000257 0.000700 0.000000
0.000264 0.000707 0.000000
0.000270 0.000718 0.000000
0.000276 0.000726 0.000000
0.000080 0.000300 0.000000
0.000080 0.000310 0.000000
0.000080 0.000320 0.000000
0.000081 0.000331 0.000000
0.000080 0.000340 0.000000
0.000082 0.000349 0.000000
0.000079 0.000360 0.000000
0.000081 0.000369 0.000000
0.000082 0.000380 0.000000
0.000080 0.000391 0.000000
0.000083 0.000400 0.000000
0.000080 0.000410 0.000000
0.000083 0.000420 0.000000
0.000079 0.000431 0.000000
0.000083 0.000442 0.000000
0.000079 0.000449 0.000000
0.000084 0.000465 0.000000
0.000075 0.000470 0.000000
0.000088 0.000472 0.000000
0.000085 0.000483 0.000000
0.000084 0.000496 0.000000
0.000192 0.000622 0.000000
0.000187 0.000601 0.000000
0.000231 0.000653 0.000000
0.000242 0.000659 0.000000
0.000250 0.000674 0.000000
0.000257 0.000683 0.000000
0.000266 0.000691 0.000000
0.000272 0.000705 0.000000
0.000278 0.000713 0.000000
0.000285 0.000720 0.000000
0.000090 0.000300 0.000000
0.000090 0.000310 0.000000
0.000090 0.000320 0.000000
0.000090 0.000329 0.000000
0.000090 0.000339 0.000000
0.000090 0.000351 0.000000
0.000090 0.000361 0.000000
0.000092 0.000371 0.000000
0.000089 0.000380 0.000000
0.000092 0.000389 0.000000
0.000090 0.000400 0.000000
0.000091 0.000411 0.000000
0.000091 0.000421 0.000000
0.000093 0.000429 0.000000
0.000091 0.000438 0.000000
0.000097 0.000456 0.000000
0.000089 0.000453 0.000000
0.000098 0.000473 0.000000
0.000106 0.000480 0.000000
0.000089 0.000495 0.000000
0.000095 0.000495 0.000000
0.000186 0.000531 0.000000
0.000207 0.000628 0.000000
0.000202 0.000615 0.000000
0.000218 0.000640 0.000000
0.000253 0.000666 0.000000
0.000268 0.000679 0.000000
0.000271 0.000693 0.000000
0.000279 0.000698 0.000000
0.000286 0.000707 0.000000
0.000293 0.000715 0.000000
0.000100 0.000300 0.000000
0.000100 0.000310 0.000000
0.000100 0.000320 0.000000
0.000100 0.000330 0.000000
0.000102 0.000341 0.000000
0.000099 0.000350 0.000000
0.000102 0.000359 0.000000
0.000100 0.000369 0.000000
0.000101 0.000380 0.000000
0.000102 0.000391 0.000000
0.000100 0.000401 0.000000
0.000102 0.000409 0.000000
0.000102 0.000418 0.000000
0.000101 0.000432 0.000000
0.000105 0.000441 0.000000
0.000097 0.000447 0.000000
0.000107 0.000461 0.000000
0.000098 0.000465 0.000000
0.000094 0.000481 0.000000
0.000107 0.000491 0.000000
0.000101 0.000494 0.000000
0.000186 0.000575 0.000000
0.000186 0.000591 0.000000
0.000187 0.000594 0.000000
0.000250 0.000658 0.000000
0.000262 0.000667 0.000000
0.000267 0.000673 0.000000
0.000278 0.000684 0.000000
0.000286 0.000690 0.000000
0.000292 0.000702 0.000000
0.000300 0.000709 0.000000
0.000110 0.000300 0.000000
0.000110 0.000310 0.000000
0.000110 0.000320 0.000000
0.000111 0.000330 0.000000
0.000109 0.000339 0.000000
0.000111 0.000350 0.000000
0.000111 0.000361 0.000000
0.000110 0.000371 0.000000
0.000113 0.000379 0.000000
0.000108 0.000389 0.000000
0.000113 0.000399 0.000000
0.000111 0.000411 0.000000
0.000115 0.000423 0.000000
0.000107 0.000427 0.000000
0.000115 0.000439 0.000000
0.000109 0.000450 0.000000
0.000115 0.000461 0.000000
0.000112 0.000470 0.000000
0.000116 0.000480 0.000000
0.000111 0.000493 0.000000
0.000119 0.000492 0.000000
0.000187 0.000537 0.000000
0.000187 0.000541 0.000000
0.000211 0.000622 0.000000
0.000228 0.000643 0.000000
0.000229 0.000634 0.000000
[...]
POINT_DATA 6231
SCALARS density float 1
LOOKUP_TABLE default
4393.332422
4424.366545
4420.145510
4417.642842
4422.705718
4423.844459
4422.564217
4425.514408
4428.199902
4428.932080
4427.412117
4430.873654
4426.158803
4426.247133
4429.642830
4440.547602
4422.836910
4432.340025
4413.566726
4423.311136
4411.398504
4758.595001
4534.236481
4485.728640
4485.131417
4489.643196
4417.581157
4456.004075
4424.879910
4448.294130
4416.601998
4403.300188
4419.512359
4418.611286
4419.292616
4426.260471
4424.461003
4422.948209
4424.556021
4423.171038
4424.453726
4420.999703
4428.862657
4426.305811
4443.743229
4418.144458
4427.839809
4412.761025
4443.927341
4460.942050
4462.722073
4414.106977
4412.543282
4402.549047
4410.757475
4438.651858
4406.451423
4403.742670
4419.069053
4407.384711
4421.912920
4459.458055
4408.149976
4420.816381
4421.955704
4428.268010
4419.657033
4414.844992
4429.777404
4429.612381
4418.477329
4438.052573
4423.067090
4438.409171
4414.722223
4431.727694
4414.215840
4471.327235
4397.081839
4452.210296
4350.262329
4450.602956
4418.576004
4439.220295
4426.819194
4399.933205
4451.279196
4433.398706
4441.341329
4454.255466
4426.921726
4451.967070
4397.716994
4412.153754
4425.425014
4422.588345
4414.158171
4425.168340
4435.191782
4422.623715
4425.712460
4420.509834
4432.203588
4409.924716
4438.315586
4416.553179
4450.602882
4400.558867
4438.017125
4389.479365
4461.118971
4368.749916
4557.966136
4371.342600
4426.514292
4475.809654
4454.607760
4377.779565
4384.978347
4473.925381
4424.781388
4422.301599
4461.844075
4442.399215
4424.593319
4427.703055
4423.938647
4435.159983
4424.783250
4427.343821
4411.500764
4437.808666
4423.639059
4434.156641
4417.469691
4443.341514
4402.485225
4449.610059
4403.194675
4449.807474
4383.541669
4506.334911
4313.268062
4418.309367
4384.783441
4505.412369
4366.209653
4450.580340
4382.680364
4498.142930
4436.402536
4415.934294
4430.463635
4357.151532
4439.094654
4432.995409
4423.346572
4418.449543
4437.497454
4409.626726
4439.329420
4429.236383
4437.674492
4406.358630
4443.019940
4413.578911
4444.124833
4411.286774
4442.448470
4386.805199
4464.923574
4355.734294
4481.396153
4371.075357
4539.213683
4377.821866
4419.322289
4403.474816
4463.372356
4405.980718
4416.579321
4432.991191
4411.848141
4415.794947
4453.117083
4415.126788
4416.096310
4426.036964
4430.073511
4423.394417
4441.015325
4433.269115
4414.945927
4427.794677
4438.495880
4430.748207
4428.383435
4434.962887
4420.180406
4450.900458
4392.317943
4472.929588
4414.898579
4508.464899
4355.762506
4491.333286
4427.596010
4419.992405
4412.959541
4438.822528
4444.315900
4436.525131
4448.436805
4457.903411
4424.975623
4408.398332
4438.462750
4415.102509
4437.743917
4431.604154
4408.813985
4441.059261
4415.184044
4452.265889
4425.412979
4423.330777
4419.083756
4425.589434
4428.524387
4435.372658
4434.168056
4452.314227
4445.806258
4443.195659
4453.093478
4455.910660
4407.956723
4378.095024
4695.699226
4459.985962
4481.158509
4459.392894
4468.570425
4414.724909
4424.473869
4435.804651
4413.763003
4422.842848
4433.391802
4426.745375
4411.231494
4442.369917
4425.490274
4416.737200
4442.618747
4406.680938
4444.645149
4423.644414
4439.353932
4408.609961
4442.714693
4402.678738
4485.016351
4380.181363
4467.633260
4443.385979
4371.731712
4475.403604
4402.095241
4432.206468
4394.630530
4409.604654
4438.468130
4413.698579
4434.857207
4445.388690
4447.323321
4430.247171
4418.814116
4431.664516
4422.971805
4440.845427
4441.825025
4408.348371
4439.682616
4416.039066
4441.842524
4445.957362
4393.609829
4446.057828
4414.471761
4425.122136
4423.468418
4389.562112
4418.387543
4422.120625
4397.346520
4432.878912
4414.191782
4402.555427
4509.087969
4461.134548
4416.882408
4453.946707
4428.551439
4453.784049
4459.035279
4400.878735
4423.875845
4421.619252
4421.800717
4424.092932
4430.114279
4406.987001
4448.377871
4436.752804
4412.494497
4431.102450
4409.861562
4448.759789
4425.631536
4415.724269
4430.418217
4443.127406
4434.019823
4443.308443
4422.674100
4462.244393
4449.427392
4429.237123
4412.225795
4480.422723
4589.211473
4390.593289
4426.895600
4456.146438
4465.478808
4438.187732
4437.811260
4439.593761
4402.280743
4426.176251
4440.550677
4424.515252
4434.023069
4442.862647
4401.500689
4443.858808
4435.565629
4421.646041
4445.417262
4393.464593
4447.949582
4401.676685
4419.844109
4417.926500
4407.879750
4453.627264
4408.000004
4463.545345
4409.035212
4417.698892
4362.829181
4376.661797
4414.377514
4418.594957
4422.981579
4431.082138
4463.710051
4460.165834
4425.975422
4412.004752
4443.213291
4428.221719
4417.039466
4433.956920
4400.532381
4451.983406
4437.310969
4407.559792
4432.500029
4421.991859
4443.622627
4438.043368
4423.318772
4432.199946
4443.443720
4394.375342
4434.205084
4383.723899
4433.887733
4434.457481
4398.592460
4504.210349
4366.479279
4461.217951
4503.029040
4451.321695
4367.474891
4434.664902
4374.514842
4435.391584
4409.795906
4429.625004
4421.068579
4441.893024
4436.902742
4424.677200
4439.701182
4400.661693
4438.066283
4444.627921
4409.370355
4427.035687
4403.652418
4436.531625
4439.530200
4394.331132
4424.523459
4424.214626
4456.815684
4484.430023
4421.340702
4469.133301
4444.058622
4439.902105
4484.999865
4419.319547
4504.932762
4436.086800
4488.512540
4468.593499
4462.175546
4406.657504
4422.024308
4443.095678
4445.668647
4393.225902
4446.843801
4400.235065
4446.018086
4442.105170
4402.136467
4422.096998
4439.018454
4435.105413
4425.859043
4398.166079
4461.826447
4433.953650
4392.423896
4503.526382
4587.545077
4394.025138
4380.645567
4405.412437
4412.272899
4421.164751
4488.297567
4415.250673
4448.923927
4425.211163
4440.308626
4429.294631
4433.756059
4438.227625
4427.490784
4414.373119
4444.695325
4453.471337
4401.037549
4446.215043
4392.426696
4452.533557
4434.722067
4409.670093
4404.886375
4441.436082
4414.812125
4424.230034
4366.943922
4473.442395
4375.980909
4320.345907
4571.393468
4392.116532
4464.745324
4457.388974
4459.793345
4420.006487
4433.491042
4439.185429
4426.790709
4400.136969
4414.953304
4419.040044
4432.117195
4420.852506
4442.188982
4445.596071
4394.913332
4444.428703
4426.658289
4413.191260
4451.844634
4383.264907
4443.756015
4432.273751
4423.217648
4399.370914
4429.281143
4460.602598
4406.678020
4496.455791
4465.202755
4415.470508
4398.657926
4547.130713
4465.725731
4382.982329
4482.181242
4392.274256
4467.173565
4427.461893
4397.015077
4444.032886
4413.076303
4430.434169
4429.009527
4431.506503
4400.348865
4446.856285
4458.284069
4395.676964
4445.250883
4398.339273
4448.970642
4441.455414
4389.007401
4432.398861
4435.501961
4390.358030
4431.074757
4396.640977
4484.750282
4310.996106
4432.629260
4433.123985
4456.455244
4463.359720
4468.792887
4456.285587
4481.176643
4469.110292
4449.006876
4420.639336
4426.850890
4421.357953
4425.433029
4425.366544
4425.168192
4441.512641
4438.654242
4389.433808
4447.014350
4448.435121
4398.453145
4449.447139
4387.174636
4461.168573
4431.210944
4413.305165
4434.200904
4414.110809
4396.004419
4425.637265
4424.747113
4401.839025
4490.795841
4436.806825
4440.372587
4463.251266
4436.629804
4422.073965
4412.919403
4406.028038
4407.997472
4422.668345
4418.311786
4422.191107
4443.717750
4431.226150
4423.053011
4407.775836
4446.983404
4454.532579
4384.110748
4445.016789
4407.376769
4413.463924
4443.143374
4391.092442
4415.674389
4445.261441
4408.132790
4457.153155
4417.718085
4437.487718
4468.392851
4421.922065
4495.990478
4449.231387
4477.948024
4456.039313
4422.869702
4461.390828
4456.815815
4438.507762
4417.128327
4414.304253
4438.408952
4429.761565
4410.734200
4435.321932
4440.308486
4421.249815
4393.200944
4446.233167
4460.589056
4391.143872
4459.576295
4383.928272
4450.257442
4433.105439
4400.977109
4414.090220
4425.504455
4419.983292
4439.728547
4421.026084
4507.978787
4420.501306
4495.118195
4417.188603
4461.028035
4435.370421
4469.175011
4427.885501
4465.633403
4454.991866
4435.275420
4428.249358
4416.402603
4447.337341
4443.771960
4403.912178
4424.068575
4446.774638
4434.107598
4383.249041
4437.933378
4434.964378
4399.874605
4453.761434
4384.535065
4434.390610
4452.615014
4425.749448
4432.161032
4435.704045
4443.258499
4421.991126
4470.649369
4447.899050
4443.270877
4459.691694
4438.361476
4451.805906
4456.109475
4429.450024
4437.465821
4428.616754
4425.638199
4431.603278
4436.497561
4398.275142
4450.815414
4445.883083
4397.225456
4409.368224
4445.219030
4459.752835
4376.041334
4443.207549
4395.426385
4443.487290
4446.361520
4379.338482
4433.584897
4416.211250
4421.479925
4447.728105
4460.320774
4455.399219
4461.456688
4449.400381
4438.465873
4430.839817
4458.704592
4421.065749
4468.951452
4414.590227
4465.933512
4427.068644
4426.316610
4415.433518
4441.264042
4447.448795
4394.028034
4448.472006
4448.711312
4396.476850
4395.107781
4448.252486
4456.750984
4379.591022
4459.591405
4385.559422
4463.425502
4429.078384
4435.127629
4431.986451
4408.449802
4421.814797
4423.817870
4433.280646
4442.455168
4409.090192
4475.712138
4468.370501
4458.999777
4445.693920
4395.844110
4458.098107
4423.336108
4439.331032
4434.255650
4432.012707
4396.268767
4444.228848
4450.351782
4389.326267
4437.792050
4446.465477
4420.515670
4387.472656
4444.296132
4420.331921
4391.109352
4449.041949
4382.039289
4418.504829
4438.239365
4434.065608
4435.997929
4436.397065
4443.010374
4432.940425
4440.265428
4450.776583
4409.993991
4443.184077
4459.898032
4423.858802
4406.984628
4438.038576
4426.595297
4415.178787
4427.204857
4443.410761
4439.622345
4387.489007
4452.914755
4451.104033
4387.920698
4412.474458
4444.748097
4443.350352
4392.705307
4440.172441
4398.157927
4449.222556
4432.687251
4413.534335
4425.877328
4422.739847
4437.988561
4429.455242
4452.121347
4444.659327
4430.054062
4445.889826
4442.191173
4440.071178
4457.342754
4412.850812
4429.217162
4418.385625
4447.394250
4441.108834
4408.390015
4415.919262
4444.416641
4447.028659
4383.342294
4449.362769
4452.676956
4395.952666
4392.585993
4437.537747
4445.681589
4382.016571
4441.898178
4405.432519
4407.683901
4445.162899
4427.079940
4433.536316
4438.346135
4434.850933
4438.045148
4423.596385
4425.328114
4470.813424
4438.978461
4463.462886
4465.782436
4423.067940
4436.361245
4437.520028
4404.695921
4447.554381
4444.129130
4412.434657
4400.020482
4449.537619
4452.810135
4378.707513
4439.566713
4449.449952
4426.449855
4407.325460
4444.886172
4413.741373
4432.569799
4436.098759
4401.840363
4430.636551
4426.386733
4430.014444
4437.016810
4424.614234
4466.776142
4409.421392
4468.966136
4410.175726
4457.998225
4393.226512
4431.418284
4429.973911
4413.842136
4440.173344
4451.008524
4396.375574
4439.347918
4444.704570
4419.347657
4394.622286
4451.404264
4462.270694
4381.693614
4418.453530
4425.729952
4444.284875
4391.734006
4430.334839
4422.758743
4441.065182
4437.726408
4416.792236
4454.334493
4408.073230
4435.698687
4438.813042
4447.221965
4423.848713
4467.962020
4457.022336
4479.169963
4428.876417
4434.081167
4439.217445
4435.708387
4398.654430
4451.280211
4450.144364
4397.108603
4428.183605
4442.855117
4430.101590
4391.271182
4451.935840
4457.073705
4403.261703
4421.295198
4432.345177
4408.390856
4435.854663
4404.833661
4419.884147
4417.911230
4427.942996
4445.263834
4445.749358
4446.372163
4458.278952
4464.455184
4460.978606
4448.968801
4461.777125
4437.197712
4426.280932
4417.121700
4423.172556
4443.088834
4445.169924
4393.312808
4451.281287
4448.937706
4403.251988
4416.543164
4441.408817
4449.366015
4380.475335
4437.102697
4435.694325
4421.013506
4427.083283
4424.000588
4436.670282
4433.674042
4418.304126
4426.021634
4448.539618
4435.898892
4424.313912
4435.075854
4414.890817
4497.742332
4438.825677
4470.666482
4430.391406
4424.084970
4444.813823
4443.980109
4417.284818
4408.101812
4445.736990
4452.509916
4391.990834
4450.087207
4443.230163
4405.160295
4406.934200
4456.077825
4460.227441
4388.466393
4423.940805
4421.285568
4429.497667
4418.567722
4430.341343
4443.052754
4413.641708
4431.236154
4449.614827
4454.300699
4472.022409
4449.068465
4449.646373
4443.943624
4465.430711
4422.419993
4430.846770
4437.640429
4407.840287
4439.963945
4448.218958
4423.803826
4400.315513
4442.092979
4457.966978
4395.725494
4447.703699
4437.940459
4416.970452
4396.339537
4449.323916
4451.599252
4404.010378
4472.515453
4420.865940
4447.084007
4422.971068
4446.692005
4421.678715
4455.966461
4429.910743
4465.530294
4472.369741
4481.375548
4457.706605
4462.010510
4433.204810
4438.986518
4415.691448
4443.802455
4443.862648
4400.369136
4430.573527
4445.083685
4439.017211
4393.094198
4446.897639
4452.101094
4399.539966
4428.299548
4445.984599
4440.253927
4412.486830
4447.766850
4403.167785
4418.915606
4449.268790
4435.201570
4453.529767
4420.521200
4468.425862
4414.227428
4468.996012
4404.482192
4468.099666
4443.385858
4463.492238
4438.917168
4428.471772
4430.080107
4434.373453
4404.903543
4454.310170
4451.739120
4401.070146
4418.321039
4439.640307
4455.453924
4398.030988
4451.509684
4446.582211
4404.861081
4400.905647
4437.799460
4454.395916
4409.147199
4457.624426
4426.505791
4431.475850
4429.063135
4444.277549
4437.197464
4446.169100
4469.877163
4433.407659
4481.094292
4448.328974
4462.077666
4429.722056
4422.768411
4433.839855
4422.655649
4438.641857
4433.755098
4403.902305
4452.897124
4444.028989
4416.600410
4402.424537
4444.669280
4458.663462
4392.153126
4454.629468
4439.053550
4437.005544
4408.071542
4452.872612
4400.368546
4427.514993
4461.840165
4449.065947
4425.934101
4453.682791
4446.154805
4428.344107
4477.173562
4429.532681
4458.109858
4455.285232
4425.410745
4440.865654
4443.402987
4420.188822
4445.348530
4424.851647
4438.027727
4449.381806
4399.439000
4435.626481
4444.927473
4435.812457
4404.764036
4450.740924
4460.014854
4384.639994
4448.246584
4421.388259
4452.147154
4417.993301
4444.760870
4441.008161
4405.622963
4431.056388
4443.023268
4456.398035
4464.262901
4463.111151
4461.073777
4463.849878
4451.280932
4441.824248
4429.928698
4414.652335
4424.073106
4418.383737
4405.949302
4438.897366
4406.976920
4457.569725
4443.548231
4406.126995
4416.790065
4447.863966
4442.700693
4405.815580
4467.004491
4423.456869
4445.051747
4430.266305
4448.006346
4472.177926
4398.629612
4471.043844
4448.144765
4458.977446
4415.927036
4426.907227
4464.546520
4436.928410
4449.470447
4453.056968
4431.694838
4422.040372
4443.426035
4454.180054
4427.867660
4433.785889
4441.970444
4422.285611
4450.685255
4399.157692
4446.508020
4443.523210
4425.082401
4406.336984
4445.569271
4457.866805
4398.884613
4449.230924
4428.633564
4443.061352
4430.954357
4452.707175
4430.778414
4397.743236
4462.182202
4465.302467
4469.424496
4427.413946
4454.805678
4456.547764
4452.868152
4430.341007
4431.323647
4441.823884
4393.633055
4443.157895
4450.897537
4404.866148
4441.156836
4417.949063
4452.401661
4447.831884
4399.096675
4428.719991
4442.758682
4451.436357
4386.053595
4458.458726
4416.440544
4423.395584
4443.931277
4436.007907
4449.329841
4419.449554
4463.048030
4420.247826
4453.300303
4430.506690
4454.439873
4448.945250
4447.000614
4450.165534
4432.740092
4429.194235
4426.032149
4454.465362
4449.100826
4397.833466
4446.414550
4452.131069
4396.823472
4453.112151
4404.090436
4463.473024
4449.901135
4398.899146
4420.922167
4441.733701
4463.414924
4406.731618
4464.038248
4403.260233
4468.734300
4423.475754
4457.489122
4443.012388
4408.549857
4440.274915
4448.367655
4453.847437
4439.036939
4455.342034
4448.857334
4435.229300
4439.331324
4434.919994
4428.728506
4405.858555
4455.380066
4454.842699
4399.013968
4448.075203
4412.843606
4433.338581
4441.376810
4400.843949
4463.522417
4440.583006
4409.364504
4401.820509
4444.874758
4452.842838
4409.725814
4437.264287
4419.873438
4451.436291
4418.258936
4455.625161
4440.956952
4421.292018
4456.651925
4428.182395
4457.621738
4448.503654
4447.791406
4434.452773
4424.624225
4442.881872
4437.249364
4442.321561
4405.803711
4441.950107
4472.506188
4398.771458
4447.659245
4408.389775
4445.719453
4445.893190
4395.627357
4440.732577
4449.265282
4441.772288
4419.963915
4472.833040
4430.344727
4397.677354
4456.136217
4430.460639
4460.518865
4396.620200
4462.882066
4426.989953
4467.763343
4437.068179
4453.405423
4438.882595
4427.603346
4437.824568
4449.684180
4412.980488
4421.898232
4454.431536
4450.969201
4389.961621
4459.811056
4430.879087
4405.920227
4456.151065
4401.229382
4456.445737
4450.319460
4401.291076
4421.107265
4437.631205
4458.398370
4421.468471
4463.225024
4416.723265
4449.476739
4448.246343
4458.237273
4464.257198
4402.718460
4461.714001
4423.196314
4456.550325
4428.727848
4428.501495
4448.246813
4404.199388
4459.062502
4450.599372
4401.264015
4433.380519
4446.349240
4471.351249
4397.573283
4453.182972
4429.282255
4429.699395
4454.704584
4404.801888
4456.111604
4444.115132
4436.553632
4425.770096
4448.799399
4442.510901
4399.086184
4438.461018
4451.217945
4417.879605
4450.076889
4459.461014
4454.599873
4441.590382
4456.565838
4435.392947
4438.234686
4429.392348
4437.648731
4440.299641
4406.941925
4457.463276
4425.868703
4439.138874
4413.687648
4450.258361
4438.267006
4407.886195
4448.984225
4406.816845
4455.075400
4450.878891
4408.495992
4435.931787
4442.212040
4440.826207
4424.810283
4453.609041
4423.831770
4452.089597
4430.118668
4438.121494
4447.607612
4425.668432
4453.723862
4446.554082
4443.132677
4432.773140
4422.329606
4442.958048
4418.967606
4447.551598
4457.716995
4401.679436
4422.913920
4450.874847
4461.451549
4420.930562
4438.175873
4434.818019
4425.445621
4430.671820
4411.507718
4472.477665
4433.334884
4408.336599
4452.035819
4441.473514
4475.302768
4399.177470
4445.235044
4444.970074
4447.071882
4442.094864
4440.909516
4455.895155
4445.272640
4433.998120
4431.021679
4446.057912
4432.232849
4421.657598
4444.546556
4411.328501
4464.281067
4451.706564
4398.570857
4413.382465
4444.856139
4466.550896
4396.939465
4434.797624
4432.807547
4439.055148
4437.045627
4414.620192
4458.598105
4399.533900
4447.683460
4425.410550
4455.140944
4421.244327
4428.179568
4422.604083
4440.003275
4460.858376
4446.843190
4448.883131
4439.769373
4435.183129
4429.146223
4425.741914
4446.917029
4422.554175
4439.989754
4446.122178
4408.085575
4444.094539
4453.189131
4434.043096
4416.116982
4454.235410
4431.679385
4420.604094
4432.058520
4416.408587
4449.510869
4448.729014
4402.885443
4444.763655
4414.836599
4461.027609
4420.144360
4444.045614
4425.779064
4428.410487
4430.388836
4446.198356
4447.161084
4435.928843
4426.274688
4438.883004
4438.175657
4437.360302
4418.507566
4445.113622
4414.436895
4461.231797
4463.860028
4391.755396
4423.878757
4454.092713
4448.516662
4412.834301
4436.763510
4438.243957
4435.102637
4433.096707
4423.707757
4464.552594
4427.614195
4430.731329
4445.836569
4458.781718
4437.275741
4438.569379
4424.677743
4447.476204
4455.311369
4448.808762
4434.071735
4435.723384
4444.753247
4422.575874
4425.670309
4448.589284
4430.484244
4437.914434
4435.265718
4425.061082
4467.400526
4456.545267
4394.667223
4418.482850
4447.249507
4458.965673
4412.480035
4436.865067
4431.897542
4438.257864
4451.464063
4399.144951
4439.486745
4450.532140
4430.760483
4429.208077
4448.962265
4426.242619
4450.605329
4431.333977
4446.333590
4438.716136
4439.150442
4414.173498
4453.067591
4441.320487
4424.066953
4423.350005
4440.584474
4421.535168
4450.691801
4437.901195
4411.546485
4439.852444
4429.988519
4438.175055
4400.265113
4444.554117
4445.896965
4427.276335
4437.248109
4432.802535
4454.424145
4455.636555
4410.378316
4434.881780
4453.272116
4438.146321
4426.510099
4443.649406
4448.867322
4446.414266
4434.974038
4434.786167
4438.618930
4436.933503
4411.142409
4450.014358
4451.135796
4426.400124
4435.920919
4430.353837
4422.582570
4448.936945
4475.760563
4402.283163
4421.231279
4445.026484
4464.011100
4401.664304
4438.299159
4428.356741
4445.270584
4439.118062
4430.112560
4449.462234
4451.788815
4414.122410
4443.460641
4442.370189
4445.330604
4441.519509
4447.870428
4439.040696
4428.451420
4434.452958
4424.183853
4446.255957
4437.965144
4406.660277
4445.619272
4438.629537
4425.092319
4452.018004
4419.647995
4429.506029
4463.743026
4428.263185
4413.343731
4413.899819
4455.146214