# vtk DataFile Version 2.0
mfree iwf
ASCII

DATASET UNSTRUCTURED_GRID
POINTS 6231 float
0.000000 0.000300 0.000000
0.000000 0.000310 0.000000
0.000000 0.000320 0.000000
0.000000 0.000330 0.000000
0.000000 0.000340 0.000000
0.000000 0.000350 0.000000
0.000001 0.000360 0.000000
0.000001 0.000370 0.000000
0.000001 0.000380 0.000000
0.000001 0.000390 0.000000
0.000001 0.000400 0.000000
0.000001 0.000410 0.000000
0.000001 0.000420 0.000000
0.000001 0.000430 0.000000
0.000001 0.000440 0.000000
0.000002 0.000451 0.000000
0.000002 0.000460 0.000000
0.000002 0.000471 0.000000
0.000002 0.000480 0.000000
0.000002 0.000492 0.000000
0.000006 0.000501 0.000000
0.000273 0.000616 0.000000
0.000279 0.000695 0.000000
0.000273 0.000633 0.000000
0.000282 0.000710 0.000000
0.000290 0.000731 0.000000
0.000314 0.000774 0.000000
0.000318 0.000778 0.000000
0.000329 0.000786 0.000000
0.000339 0.000796 0.000000
0.000367 0.000822 0.000000
0.000010 0.000300 0.000000
0.000010 0.000310 0.000000
0.000010 0.000320 0.000000
0.000010 0.000330 0.000000
0.000010 0.000340 0.000000
0.000010 0.000350 0.000000
0.000011 0.000360 0.000000
0.000011 0.000370 0.000000
0.000011 0.000380 0.000000
0.000011 0.000390 0.000000
0.000011 0.000400 0.000000
0.000011 0.000410 0.000000
0.000011 0.000420 0.000000
0.000011 0.000430 0.000000
0.000012 0.000440 0.000000
0.000012 0.000451 0.000000
0.000012 0.000460 0.000000
0.000012 0.000472 0.000000
0.000013 0.000478 0.000000
0.000010 0.000492 0.000000
0.000013 0.000498 0.000000
0.000302 0.000745 0.000000
0.000309 0.000755 0.000000
0.000314 0.000763 0.000000
0.000320 0.000768 0.000000
0.000334 0.000780 0.000000
0.000341 0.000787 0.000000
0.000352 0.000796 0.000000
0.000358 0.000805 0.000000
0.000362 0.000810 0.000000
0.000363 0.000817 0.000000
0.000020 0.000300 0.000000
0.000020 0.000310 0.000000
0.000020 0.000320 0.000000
0.000020 0.000330 0.000000
0.000020 0.000340 0.000000
0.000021 0.000351 0.000000
0.000020 0.000360 0.000000
0.000021 0.000370 0.000000
0.000020 0.000380 0.000000
0.000021 0.000390 0.000000
0.000020 0.000400 0.000000
0.000022 0.000410 0.000000
0.000020 0.000420 0.000000
0.000022 0.000431 0.000000
0.000020 0.000440 0.000000
0.000024 0.000451 0.000000
0.000021 0.000460 0.000000
0.000022 0.000470 0.000000
0.000021 0.000481 0.000000
0.000024 0.000494 0.000000
0.000020 0.000497 0.000000
0.000293 0.000712 0.000000
0.000302 0.000736 0.000000
0.000308 0.000748 0.000000
0.000315 0.000753 0.000000
0.000328 0.000756 0.000000
0.000332 0.000771 0.000000
0.000350 0.000788 0.000000
0.000358 0.000799 0.000000
0.000370 0.000803 0.000000
0.000377 0.000808 0.000000
0.000030 0.000300 0.000000
0.000030 0.000310 0.000000
0.000030 0.000320 0.000000
0.000030 0.000330 0.000000
0.000030 0.000340 0.000000
0.000031 0.000349 0.000000
0.000030 0.000360 0.000000
0.000031 0.000370 0.000000
0.000030 0.000380 0.000000
0.000032 0.000390 0.000000
0.000030 0.000400 0.000000
0.000032 0.000411 0.000000
0.000031 0.000420 0.000000
0.000032 0.000430 0.000000
0.000031 0.000440 0.000000
0.000030 0.000450 0.000000
0.000032 0.000459 0.000000
0.000036 0.000473 0.000000
0.000030 0.000478 0.000000
0.000033 0.000488 0.000000
0.000032 0.000497 0.000000
0.000063 0.000500 0.000000
0.000308 0.000733 0.000000
0.000318 0.000742 0.000000
0.000331 0.000765 0.000000
0.000346 0.000766 0.000000
0.000343 0.000775 0.000000
0.000352 0.000778 0.000000
0.000359 0.000785 0.000000
0.000368 0.000792 0.000000
0.000383 0.000801 0.000000
0.000040 0.000300 0.000000
0.000040 0.000310 0.000000
0.000040 0.000320 0.000000
0.000040 0.000329 0.000000
0.000040 0.000340 0.000000
0.000040 0.000351 0.000000
0.000041 0.000360 0.000000
0.000041 0.000369 0.000000
0.000041 0.000380 0.000000
0.000039 0.000390 0.000000
0.000042 0.000399 0.000000
0.000041 0.000410 0.000000
0.000042 0.000420 0.000000
0.000040 0.000431 0.000000
0.000042 0.000439 0.000000
0.000043 0.000450 0.000000
0.000043 0.000460 0.000000
0.000037 0.000469 0.000000
0.000045 0.000478 0.000000
0.000043 0.000496 0.000000
0.000040 0.000498 0.000000
0.000273 0.000538 0.000000
0.000320 0.000731 0.000000
0.000327 0.000745 0.000000
0.000334 0.000748 0.000000
0.000339 0.000758 0.000000
0.000355 0.000764 0.000000
0.000368 0.000781 0.000000
0.000377 0.000783 0.000000
0.000378 0.000793 0.000000
0.000388 0.000795 0.000000
0.000050 0.000300 0.000000
0.000050 0.000310 0.000000
0.000050 0.000319 0.000000
0.000049 0.000331 0.000000
0.000052 0.000340 0.000000
0.000050 0.000349 0.000000
0.000052 0.000360 0.000000
0.000049 0.000371 0.000000
0.000053 0.000379 0.000000
0.000050 0.000390 0.000000
0.000053 0.000401 0.000000
0.000049 0.000410 0.000000
0.000054 0.000420 0.000000
0.000050 0.000430 0.000000
0.000054 0.000440 0.000000
0.000047 0.000451 0.000000
0.000055 0.000459 0.000000
0.000053 0.000470 0.000000
0.000056 0.000483 0.000000
0.000049 0.000488 0.000000
0.000050 0.000498 0.000000
0.000296 0.000729 0.000000
0.000282 0.000687 0.000000
0.000329 0.000736 0.000000
0.000344 0.000748 0.000000
0.000351 0.000757 0.000000
0.000361 0.000773 0.000000
0.000365 0.000763 0.000000
0.000371 0.000770 0.000000
0.000385 0.000782 0.000000
0.000395 0.000786 0.000000
0.000060 0.000300 0.000000
0.000060 0.000310 0.000000
0.000061 0.000321 0.000000
0.000060 0.000329 0.000000
0.000061 0.000339 0.000000
0.000059 0.000351 0.000000
0.000062 0.000360 0.000000
0.000060 0.000369 0.000000
0.000063 0.000381 0.000000
0.000058 0.000390 0.000000
0.000064 0.000399 0.000000
0.000059 0.000409 0.000000
0.000064 0.000419 0.000000
0.000058 0.000431 0.000000
0.000066 0.000440 0.000000
0.000060 0.000449 0.000000
0.000066 0.000460 0.000000
0.000055 0.000471 0.000000
0.000064 0.000475 0.000000
0.000068 0.000486 0.000000
0.000058 0.000496 0.000000
0.000292 0.000722 0.000000
0.000309 0.000725 0.000000
0.000334 0.000731 0.000000
0.000343 0.000738 0.000000
0.000353 0.000746 0.000000
0.000365 0.000754 0.000000
0.000381 0.000764 0.000000
0.000381 0.000770 0.000000
0.000391 0.000774 0.000000
0.000401 0.000778 0.000000
0.000070 0.000300 0.000000
0.000070 0.000310 0.000000
0.000070 0.000319 0.000000
0.000070 0.000330 0.000000
0.000072 0.000342 0.000000
0.000069 0.000349 0.000000
0.000072 0.000359 0.000000
0.000068 0.000371 0.000000
0.000073 0.000378 0.000000
0.000070 0.000390 0.000000
0.000074 0.000401 0.000000
0.000068 0.000411 0.000000
0.000075 0.000422 0.000000
0.000067 0.000429 0.000000
0.000075 0.000438 0.000000
0.000066 0.000452 0.000000
0.000077 0.000459 0.000000
0.000072 0.000470 0.000000
0.000076 0.000486 0.000000
0.000068 0.000496 0.000000
0.000076 0.000496 0.000000
0.000273 0.000525 0.000000
0.000305 0.000716 0.000000
0.000325 0.000723 0.000000
0.000351 0.000733 0.000000
0.000360 0.000744 0.000000
0.000371 0.000747 0.000000
0.000376 0.000756 0.000000
0.000387 0.000757 0.000000
0.000397 0.000767 0.000000
0.000406 0.000770 0.000000
0.000080 0.000300 0.000000
0.000080 0.000310 0.000000
0.000080 0.000320 0.000000
0.000081 0.000330 0.000000
0.000080 0.000339 0.000000
0.000080 0.000350 0.000000
0.000080 0.000361 0.000000
0.000080 0.000369 0.000000
0.000082 0.000382 0.000000
0.000078 0.000390 0.000000
0.000084 0.000397 0.000000
0.000078 0.000409 0.000000
0.000083 0.000417 0.000000
0.000079 0.000431 0.000000
0.000087 0.000446 0.000000
0.000077 0.000447 0.000000
0.000085 0.000463 0.000000
0.000075 0.000470 0.000000
0.000087 0.000473 0.000000
0.000086 0.000482 0.000000
0.000084 0.000495 0.000000
0.000288 0.000712 0.000000
0.000276 0.000685 0.000000
0.000337 0.000722 0.000000
0.000347 0.000727 0.000000
0.000361 0.000735 0.000000
0.000374 0.000739 0.000000
0.000382 0.000744 0.000000
0.000394 0.000755 0.000000
0.000402 0.000759 0.000000
0.000412 0.000762 0.000000
0.000090 0.000300 0.000000
0.000090 0.000310 0.000000
0.000090 0.000320 0.000000
0.000090 0.000329 0.000000
0.000090 0.000340 0.000000
0.000091 0.000351 0.000000
0.000090 0.000360 0.000000
0.000091 0.000370 0.000000
0.000089 0.000379 0.000000
0.000092 0.000389 0.000000
0.000091 0.000403 0.000000
0.000091 0.000411 0.000000
0.000089 0.000424 0.000000
0.000097 0.000426 0.000000
0.000088 0.000435 0.000000
0.000097 0.000456 0.000000
0.000087 0.000453 0.000000
0.000098 0.000471 0.000000
0.000106 0.000480 0.000000
0.000089 0.000495 0.000000
0.000095 0.000495 0.000000
0.000273 0.000552 0.000000
0.000304 0.000710 0.000000
0.000294 0.000702 0.000000
0.000318 0.000719 0.000000
0.000362 0.000725 0.000000
0.000374 0.000731 0.000000
0.000388 0.000743 0.000000
0.000397 0.000745 0.000000
0.000407 0.000750 0.000000
0.000417 0.000754 0.000000
0.000100 0.000300 0.000000
0.000100 0.000310 0.000000
0.000100 0.000320 0.000000
0.000100 0.000331 0.000000
0.000100 0.000340 0.000000
0.000100 0.000349 0.000000
0.000101 0.000359 0.000000
0.000101 0.000371 0.000000
0.000100 0.000380 0.000000
0.000102 0.000391 0.000000
0.000098 0.000399 0.000000
0.000103 0.000408 0.000000
0.000101 0.000417 0.000000
0.000099 0.000436 0.000000
0.000109 0.000443 0.000000
0.000097 0.000445 0.000000
0.000107 0.000460 0.000000
0.000098 0.000467 0.000000
0.000094 0.000481 0.000000
0.000107 0.000491 0.000000
0.000101 0.000494 0.000000
0.000273 0.000639 0.000000
0.000273 0.000646 0.000000
0.000276 0.000679 0.000000
0.000354 0.000719 0.000000
0.000368 0.000723 0.000000
0.000381 0.000727 0.000000
0.000391 0.000733 0.000000
0.000399 0.000733 0.000000
0.000410 0.000743 0.000000
0.000422 0.000745 0.000000
0.000110 0.000300 0.000000
0.000110 0.000310 0.000000
0.000110 0.000321 0.000000
0.000110 0.000330 0.000000
0.000110 0.000340 0.000000
0.000111 0.000351 0.000000
0.000111 0.000361 0.000000
0.000110 0.000368 0.000000
0.000111 0.000379 0.000000
0.000110 0.000390 0.000000
0.000112 0.000400 0.000000
0.000111 0.000413 0.000000
0.000116 0.000422 0.000000
0.000106 0.000427 0.000000
0.000113 0.000433 0.000000
0.000107 0.000450 0.000000
0.000116 0.000461 0.000000
0.000111 0.000471 0.000000
0.000116 0.000480 0.000000
0.000111 0.000493 0.000000
0.000119 0.000492 0.000000
0.000273 0.000588 0.000000
0.000273 0.000570 0.000000
0.000304 0.000700 0.000000
0.000327 0.000714 0.000000
0.000326 0.000705 0.000000
[...]
POINT_DATA 6231
SCALARS density float 1
LOOKUP_TABLE default
4403.438727
4424.700741
4420.118766
4422.742951
4426.598680
4425.629986
4425.616792
4425.973892
4427.376471
4428.012663
4424.318797
4428.095419
4429.419316
4429.978860
4430.433039
4440.725657
4422.579254
4431.948532
4412.787624
4423.414996
4411.442002
4558.313163
4427.897344
4446.048921
4440.766735
4439.295622
4404.360384
4437.135903
4434.765637
4450.848071
4416.994413
4407.858988
4422.327399
4422.909778
4426.927058
4421.838624
4425.514163
4425.553791
4420.228287
4428.599753
4433.142978
4428.916432
4434.192917
4425.765077
4436.136168
4415.184919
4427.943055
4409.828690
4443.906528
4460.749474
4460.264467
4415.604797
4394.316572
4390.842106
4402.582702
4454.587049
4388.447126
4404.978397
4417.532088
4414.450309
4433.208467
4462.259403
4416.542941
4429.422394
4422.087163
4425.276632
4422.038802
4426.822334
4428.305349
4439.563401
4423.982987
4418.782111
4427.417476
4430.339629
4413.334734
4442.793395
4415.372100
4476.031115
4399.079925
4453.305006
4352.793453
4449.794692
4420.002062
4416.664669
4397.134302
4395.111150
4512.600499
4343.706888
4426.805528
4463.773117
4409.980300
4433.496930
4397.870807
4420.727669
4421.008120
4421.991390
4424.737371
4434.317646
4434.408383
4415.840493
4423.932312
4417.691344
4450.510439
4412.657568
4439.891515
4424.585822
4443.439583
4401.371097
4432.852152
4389.351692
4457.640245
4369.673762
4555.913850
4370.009257
4431.147172
4519.818390
4468.162579
4452.203825
4379.933060
4486.361391
4414.448081
4415.735680
4505.378991
4448.431496
4426.559400
4427.559838
4439.526866
4433.328964
4417.630390
4424.386433
4432.622402
4443.202622
4414.294412
4439.771334
4398.157655
4450.667973
4396.242372
4443.603382
4416.175066
4448.836536
4387.008869
4508.128594
4310.538820
4419.923269
4384.036628
4549.356900
4367.366697
4385.960297
4473.474504
4463.988743
4430.920357
4383.970172
4436.062895
4370.655256
4421.891729
4436.301657
4423.513312
4415.841497
4421.733526
4437.959687
4440.516677
4407.209642
4433.485695
4419.085400
4438.981014
4430.609045
4445.631831
4399.166915
4465.333849
4358.641628
4478.203866
4358.013875
4480.151660
4362.701089
4535.425412
4383.251207
4436.687012
4418.608318
4484.262820
4431.950235
4413.905643
4462.746174
4422.479396
4400.030793
4448.252744
4416.830147
4424.037403
4427.361197
4440.762328
4440.728302
4414.762012
4428.032536
4435.710543
4437.762600
4416.753678
4439.747891
4406.006461
4436.489852
4430.505172
4446.387377
4421.827197
4476.463537
4402.904025
4516.432991
4369.802135
4483.581134
4431.321984
4419.171745
4363.939153
4428.962415
4408.260332
4436.300653
4437.951958
4455.199126
4440.922338
4400.279283
4450.997072
4423.033598
4431.081535
4423.834755
4411.694909
4446.553052
4429.921719
4421.699564
4435.173347
4416.385813
4434.395465
4431.238460
4425.708573
4420.893690
4421.728503
4448.870304
4457.660868
4442.445754
4463.504503
4445.858176
4411.717170
4386.077709
4540.432943
4462.816011
4457.167538
4459.986944
4430.125119
4457.443527
4397.960971
4447.495965
4397.927160
4421.255826
4427.854232
4430.386114
4415.283934
4440.589681
4436.794121
4409.859363
4449.560901
4419.462204
4441.921412
4438.548236
4394.094267
4424.012107
4422.457990
4442.077430
4466.402850
4389.998436
4455.659966
4450.933274
4351.456430
4472.409259
4411.844811
4424.885436
4414.991216
4402.649907
4447.117290
4405.220012
4422.497880
4436.123791
4448.232765
4439.347689
4426.743803
4425.946683
4434.223775
4436.098837
4426.320928
4405.388828
4443.920227
4432.906091
4416.536264
4444.767366
4411.540144
4448.658774
4417.152413
4416.900062
4463.930568
4411.203796
4382.130848
4440.217716
4438.586718
4427.911375
4426.018761
4412.028491
4533.114803
4448.819927
4426.897203
4465.480278
4445.625861
4432.275402
4454.273124
4395.057805
4426.680852
4427.463146
4433.099505
4428.690924
4419.483977
4428.942247
4444.872971
4437.672262
4409.328569
4435.962856
4424.351989
4417.581327
4448.575924
4416.332595
4414.679682
4394.017513
4436.825032
4447.447082
4411.442605
4471.287578
4422.242795
4436.431724
4416.659229
4435.829987
4426.109390
4415.642604
4385.958766
4447.296535
4447.518121
4434.190293
4457.872230
4432.548876
4410.978979
4432.980326
4425.120265
4440.036426
4434.460613
4412.557293
4412.395378
4449.942603
4442.389632
4412.844513
4442.950420
4407.494221
4452.598581
4401.405037
4449.293406
4410.944652
4449.830498
4473.728635
4385.742783
4462.784401
4403.634721
4414.650169
4556.002021
4605.387698
4421.811159
4402.741622
4449.284670
4424.092860
4452.254662
4456.877957
4412.487925
4433.328781
4434.262026
4422.444041
4431.063731
4415.448640
4437.834062
4449.025295
4405.596182
4409.878858
4441.293697
4436.178702
4409.161246
4443.028744
4424.696270
4451.484959
4429.829251
4370.186042
4429.458518
4392.761947
4420.331494
4438.703210
4395.885799
4459.317829
4426.189740
4427.976216
4451.279452
4442.419867
4384.901010
4408.018021
4397.408438
4421.380293
4408.194296
4429.243706
4434.836239
4427.339264
4432.588666
4425.497143
4410.465117
4437.202892
4445.509454
4426.236497
4396.922641
4446.474555
4408.115720
4445.452071
4414.070739
4401.534185
4435.170013
4418.904150
4446.704753
4492.538735
4421.798770
4450.204431
4461.629235
4411.134697
4417.798446
4428.517816
4411.018926
4432.273936
4441.895090
4461.054290
4463.726309
4411.887272
4428.718117
4439.235291
4430.226290
4416.797709
4421.797288
4433.928993
4435.695528
4402.845784
4432.116807
4431.372858
4441.700071
4401.924259
4431.728981
4406.111131
4446.194292
4383.060554
4416.492604
4498.688081
4576.174047
4388.960670
4372.464231
4408.655174
4406.462709
4483.435629
4472.175730
4381.568754
4479.444546
4451.868056
4419.320388
4428.782846
4439.835100
4428.369607
4427.666420
4425.000185
4442.307968
4431.514232
4408.219825
4418.205539
4444.864428
4436.913910
4394.420999
4427.345406
4430.303885
4433.304982
4387.521750
4454.266972
4413.011723
4484.162257
4354.870968
4330.889840
4507.261413
4398.581864
4441.959341
4428.501925
4400.745498
4471.093309
4383.766891
4452.469211
4395.894653
4411.606433
4423.837296
4412.299937
4426.652538
4438.318995
4430.742356
4418.370443
4423.717309
4441.147069
4436.754226
4403.958127
4416.017694
4443.096909
4439.597520
4391.765076
4444.469957
4419.874898
4432.394764
4419.465746
4415.310510
4495.892657
4483.557347
4425.781950
4408.222314
4403.366111
4460.246779
4432.962148
4427.093372
4405.945152
4420.458521
4444.793526
4421.075366
4435.912400
4418.964877
4436.064733
4430.742520
4418.433302
4437.292557
4433.253576
4419.738277
4418.272899
4436.497001
4439.627002
4404.306495
4417.590949
4451.136408
4414.370079
4438.672314
4388.798011
4450.549669
4400.430117
4469.514095
4331.398014
4361.853259
4433.703810
4408.982975
4438.105817
4458.783231
4390.174381
4460.116328
4448.497517
4436.107257
4449.190421
4424.014458
4421.584877
4428.922298
4422.498095
4433.123236
4449.083722
4410.895568
4431.641170
4437.620354
4422.123274
4411.818709
4445.840827
4424.611393
4416.966019
4408.839233
4446.052624
4403.318905
4448.247046
4332.994314
4475.895819
4390.690566
4453.825610
4402.394777
4419.865742
4383.814539
4469.437129
4478.469229
4397.253213
4438.936217
4454.994086
4419.705637
4423.294411
4417.369138
4425.378887
4433.299556
4432.077988
4407.679110
4431.864071
4449.360005
4396.919673
4437.721758
4424.339830
4433.562597
4398.545895
4453.002155
4404.512685
4432.826882
4401.094771
4444.404121
4461.172983
4483.172691
4428.965288
4555.009599
4388.528156
4447.781718
4479.319996
4417.808366
4422.237665
4368.963991
4429.137186
4423.795159
4446.333558
4430.220046
4397.829217
4426.093231
4425.275039
4419.441207
4438.611845
4438.940738
4413.274172
4428.151819
4450.616278
4387.329868
4438.340129
4425.469723
4443.241408
4389.659844
4440.938580
4437.216099
4403.015811
4404.723894
4460.610242
4371.015687
4403.812332
4660.889177
4390.298972
4482.702327
4461.456556
4422.229723
4420.063688
4433.668971
4435.105288
4458.010940
4391.738708
4398.207542
4422.940772
4438.729178
4430.485390
4430.865370
4401.937859
4434.995098
4444.069189
4402.876864
4431.105589
4444.333059
4407.615041
4413.269508
4451.986421
4410.600506
4411.033916
4474.467993
4398.715579
4475.119798
4403.564736
4476.439569
4410.016487
4443.971174
4474.843108
4419.185002
4431.217337
4431.268232
4455.094019
4450.892666
4382.717644
4420.256254
4450.876539
4432.719103
4425.217523
4413.937233
4425.641096
4442.733499
4426.722520
4399.675111
4430.913538
4446.290559
4382.972165
4443.943618
4440.498291
4414.182640
4439.925599
4412.460287
4416.011767
4400.022494
4449.003288
4404.588035
4456.780856
4429.599909
4434.521133
4440.663688
4476.388403
4432.612261
4443.687857
4451.305113
4396.556434
4502.355691
4390.848874
4426.834661
4425.235356
4419.773543
4441.977754
4436.677251
4408.430823
4419.618672
4440.006999
4428.155285
4408.061273
4430.893198
4431.562103
4399.955757
4409.993505
4444.270140
4415.664362
4420.231198
4438.397378
4414.852011
4428.648563
4410.128686
4418.704357
4435.107876
4455.694883
4463.649416
4456.095023
4458.499453
4431.455641
4440.812766
4444.619519
4442.009576
4426.922353
4422.573800
4433.109734
4432.041825
4407.455855
4437.987901
4439.216028
4407.981032
4415.414888
4418.708987
4446.975073
4393.539178
4435.571201
4446.824346
4398.800186
4423.125888
4440.149178
4403.179341
4423.660595
4461.122971
4543.185529
4410.368872
4475.601523
4437.895953
4423.983144
4446.582825
4434.623654
4445.595042
4434.929739
4397.892215
4431.606942
4453.048845
4426.821283
4428.045873
4413.108205
4440.086897
4444.194654
4404.599815
4418.761722
4446.847293
4417.964180
4409.732891
4419.062961
4421.767749
4388.587112
4447.794133
4428.878348
4428.981489
4405.000275
4446.948014
4386.360140
4408.690669
4424.552561
4422.684969
4478.754369
4440.299697
4440.915047
4432.100114
4472.725714
4445.995964
4444.666727
4422.492116
4411.382719
4424.881840
4438.694003
4433.085951
4433.075980
4395.009835
4447.748920
4448.137132
4395.521499
4417.912223
4435.004074
4423.325153
4419.056028
4422.524830
4406.724845
4382.617533
4424.399797
4441.758658
4460.881463
4404.779993
4401.355818
4415.871690
4395.669597
4478.010101
4472.408187
4458.836810
4466.463424
4426.564945
4413.938745
4451.682013
4397.762397
4433.882377
4433.399635
4425.816180
4414.579643
4427.120423
4441.700645
4432.685790
4397.408611
4444.496951
4436.293898
4413.702994
4399.094194
4429.210817
4428.081808
4421.300978
4423.177071
4443.639788
4400.063396
4415.756847
4446.515263
4444.082408
4548.412394
4475.656086
4466.122364
4450.657182
4454.735643
4423.152060
4448.304185
4430.305695
4460.777974
4413.158524
4425.158787
4428.612529
4421.846902
4443.793210
4434.328522
4414.918020
4411.664413
4432.230201
4445.259843
4390.228760
4439.225239
4430.313235
4405.855483
4398.396175
4432.710519
4412.216710
4395.337089
4437.574645
4414.161234
4422.817880
4399.838589
4444.629653
4493.297161
4468.122924
4452.579793
4453.299883
4441.986550
4454.805882
4387.015794
4409.658329
4461.401232
4419.146564
4421.700570
4429.078372
4432.658454
4412.036225
4434.021534
4443.193513
4417.899698
4398.837518
4435.637012
4444.237244
4396.735270
4429.903577
4422.550491
4416.915949
4424.042658
4419.766932
4429.437160
4437.887435
4407.787016
4440.888251
4467.990347
4459.298441
4397.211540
4446.160189
4468.428335
4418.330321
4441.917042
4444.090300
4437.488916
4411.187322
4407.515468
4427.114193
4433.251267
4417.438473
4443.034943
4444.108514
4396.911861
4430.356837
4431.160518
4419.121053
4402.223430
4437.365739
4433.523207
4404.640859
4399.012504
4421.830539
4426.732339
4419.096348
4421.284846
4434.910375
4423.072508
4437.941654
4445.676675
4425.521619
4461.168660
4463.595349
4451.326960
4433.292310
4477.924960
4443.910407
4417.229067
4425.036739
4426.683132
4431.899564
4434.584029
4426.664228
4411.212255
4445.730852
4439.153542
4408.359879
4425.697099
4419.733836
4436.371142
4392.509935
4437.349896
4445.176627
4416.916327
4405.564212
4430.165513
4432.012280
4426.533854
4437.450911
4456.779255
4471.702449
4451.953923
4436.995325
4450.217725
4434.576726
4452.572835
4424.971426
4394.414717
4428.967381
4436.434016
4435.778155
4427.595479
4426.689934
4428.121312
4436.398412
4437.588378
4400.371357
4431.460967
4428.705565
4421.609337
4418.046614
4426.577818
4436.072930
4387.353807
4401.348233
4426.309999
4434.627025
4411.458534
4432.208346
4432.803630
4426.746993
4426.740155
4412.222935
4463.069543
4455.762769
4436.290409
4411.116504
4454.512955
4507.133347
4367.457744
4428.852289
4438.739933
4421.285097
4442.977889
4431.023804
4424.742356
4405.943222
4440.629161
4448.384084
4409.333397
4425.496504
4427.419604
4424.694574
4413.468434
4440.977743
4433.982837
4421.274663
4406.706699
4426.791253
4417.548962
4430.785007
4419.054496
4440.116898
4462.629766
4428.707379
4413.074503
4461.506165
4415.315555
4460.425936
4452.426507
4374.269459
4412.454109
4430.370743
4431.956502
4439.842689
4406.742477
4441.587942
4444.656477
4411.863398
4397.075649
4433.297841
4437.456058
4409.640996
4434.730955
4405.072585
4427.531260
4395.381980
4406.062519
4442.600974
4431.344073
4408.610338
4435.442529
4447.703213
4431.095547
4410.466628
4449.084317
4437.008349
4436.554317
4472.725349
4476.588128
4424.624314
4471.413732
4422.520059
4439.440277
4435.279417
4420.250377
4449.000366
4426.924885
4413.376775
4444.320532
4444.433748
4416.805282
4431.999362
4412.248031
4442.560126
4428.998484
4427.059554
4434.816148
4435.911301
4402.151744
4428.728176
4427.480219
4420.845568
4429.077854
4439.325519
4445.629752
4447.151177
4427.484082
4441.111335
4437.538334
4425.614855
4445.942846
4457.440392
4476.652916
4425.442603
4426.041576
4437.134748
4438.848954
4406.939833
4458.210780
4427.304289
4406.483302
4429.311419
4414.154156
4440.769607
4419.067775
4419.908523
4430.068366
4402.966006
4420.091638
4424.550104
4445.493695
4419.512747
4421.305392
4426.072568
4437.915039
4427.885495
4411.313976
4444.164123
4446.635415
4422.684648
4443.113377
4473.443359
4451.029654
4481.972635
4422.697489
4424.494387
4443.326553
4415.169282
4426.393645
4427.436996
4397.922425
4444.289318
4438.178020
4424.798527
4437.065963
4437.648809
4410.839752
4431.660600
4437.441390
4425.396387
4421.708217
4405.027207
4448.288213
4432.084423
4431.618807
4422.838742
4438.170170
4445.916150
4444.950335
4450.763142
4449.458339
4429.960073
4448.558617
4438.821343
4451.258693
4431.149258
4427.022292
4410.976540
4429.447326
4446.964741
4415.803529
4440.804438
4440.095113
4398.028486
4443.590566
4393.313989
4430.053500
4435.823204
4419.130054
4418.531149
4431.059086
4422.049279
4420.946352
4443.226079
4408.533242
4442.365675
4430.583514
4441.092176
4433.865098
4419.350464
4434.945798
4444.479950
4455.461695
4473.354977
4452.049629
4451.571234
4426.447959
4424.843242
4436.264016
4439.618179
4406.957646
4432.429992
4433.994211
4401.654187
4450.498217
4442.747108
4425.447855
4448.933106
4416.766976
4444.132632
4412.777321
4421.747237
4418.739132
4430.774093
4427.739901
4420.002777
4425.523490
4404.949560
4444.527822
4428.512281
4449.272288
4455.683260
4444.817887
4433.109340
4443.594317
4445.489478
4462.791972
4426.631441
4432.803917
4411.684824
4423.047027
4441.114608
4434.116004
4403.300697
4435.059095
4440.698478
4401.575513
4426.253597
4396.057585
4406.444874
4420.326945
4443.895773
4418.533165
4435.221968
4413.427847
4429.535815
4426.261277
4408.488516
4442.497266
4436.702154
4438.365290
4435.128868
4430.919039
4464.838406
4448.686212
4469.243906
4458.554365
4462.145939
4424.147652
4438.392946
4430.710991
4439.950355
4437.749381
4433.487918
4443.392026
4427.882985
4408.376419
4453.421356
4470.173746
4401.271477
4463.416138
4462.709656
4399.379575
4440.835002
4426.260523
4421.373048
4433.837783
4439.433664
4429.305918
4434.569019
4413.988475
4459.199920
4430.859766
4461.346609
4456.260810
4447.934423
4460.518089
4451.484549
4458.188856
4429.837629
4431.156336
4412.430227
4424.616522
4385.378143
4448.679478
4435.976255
4415.597036
4437.374269
4419.942974
4389.709332
4437.594527
4438.080275
4400.952948
4438.887963
4382.475760
4436.258909
4435.795119
4438.729722
4427.975398
4432.295006
4417.776443
4448.517098
4432.925371
4436.996696
4439.017952
4440.311638
4463.080865
4453.305310
4461.369773
4457.081256
4429.060780
4425.381149
4433.946456
4442.429464
4427.479247
4426.984263
4420.032224
4454.538121
4413.035746
4447.065239
4447.594134
4441.758214
4394.718258
4435.342555
4423.411901
4458.059993
4426.156358
4406.258206
4447.278878
4408.934686
4433.657947
4446.574425
4426.452148
4449.397396
4450.591266
4447.139425
4466.842199
4450.036254
4459.622385
4452.643090
4455.719235
4423.836221
4421.909714
4431.739330
4404.687356
4424.149701
4420.481492
4424.753583
4432.330635
4450.689532
4407.820216
4424.180523
4388.862160
4430.058821
4442.329302
4416.963139
4445.959059
4415.030519
4447.173146
4451.278443
4397.189382
4448.216805
4406.066091
4434.630862
4441.498912
4429.641209
4445.296976
4461.322187
4457.534687
4454.675037
4452.771129
4454.916042
4427.826202
4435.696703
4427.348508
4430.484408
4450.728698
4443.387157
4446.938090
4413.334393
4428.046718
4438.375543
4461.167465
4452.540148
4424.456068
4424.485874
4411.757265
4476.311261
4423.353990
4446.438935
4409.326447
4453.703571
4455.102956
4419.654423
4463.266041
4409.148840
4463.304740
4454.522406
4433.662905
4468.698700
4457.200111
4449.207035
4453.438693
4431.570574
4430.202548
4414.970388
4424.524228
4400.149741
4447.203919
4429.187223
4410.009191
4417.458773
4428.492809
4405.196116
4399.094561
4458.597984
4426.396586
4399.501501
4411.565221
4450.180786
4429.936122
4446.960783
4424.224146
4403.030544
4437.064238
4458.864748
4397.047117
4466.261565
4412.223959
4465.431968
4449.424265
4446.065043
4455.738993
4450.643203
4433.934495
4425.567962
4442.349405
4444.051541
4428.520617
4436.408190
4426.735757
4422.365823
4449.272580
4420.836311
4453.677680
4428.194324
4428.616553
4408.851731
4447.402600
4442.788474
4431.544614
4417.792947
4430.731734
4450.960988
4450.776470
4417.743617
4418.348888
4466.846053
4427.796559
4424.695369
4433.575126
4440.465542
4467.003369
4456.721169
4451.058524
4424.785288
4422.667384
4437.256516
4400.339755
4446.980593
4426.183514
4424.248643
4448.925692
4420.233456
4430.837268
4410.094614
4420.970022
4431.094852
4448.113679
4409.873631
4425.603139
4452.911034
4440.149658
4421.343306
4428.637151
4431.165555
4443.964638
4437.192495
4457.302436
4405.165156
4473.896922
4415.749730
4450.113732
4440.761525
4441.660573
4451.042965
4433.086505
4439.589932
4432.453557
4439.108711
4455.761104
4417.127796
4432.082062
4403.352316
4441.244607
4450.569693
4426.587445
4442.433251
4437.203015
4422.575283
4445.509402
4436.615618
4431.560959
4434.135836
4430.671120
4435.291075
4449.880783
4452.352383
4432.297523
4442.995500
4455.278242
4446.423281
4442.093569
4444.568979
4449.686311
4462.305579
4451.355217
4431.559071
4432.092940
4407.835662
4440.442425
4394.641773
4446.106744
4439.813227
4443.976146
4432.993155
4413.882151
4419.341402
4449.145010
4408.296463
4439.511102
4437.114681
4417.385446
4435.469192
4439.485075
4441.482220
4416.388735
4442.139172
4414.142761
4428.989500
4459.288890
4431.329499
4432.457738
4454.247346
4430.713919
4446.244011
4432.322288
4450.574677
4427.942410
4432.760796
4439.382659
4428.580059
4444.100266
4419.027289
4432.222410
4387.859691
4435.055953
4448.991728
4444.461222
4437.482757
4441.994465
4406.328590
4411.333250
4439.029258
4441.320733
4427.096441
4434.528038
4427.504929
4450.920111
4457.762397
4445.632900
4441.108397
4453.148716
4450.643281
4444.585865
4445.616175
4462.443502
4446.475487
4453.247374
4445.417076
4429.488021
4436.142333
4420.444010
4418.444787
4450.682172
4429.781190
4459.150928
4424.766361
4408.824488
4417.662251
4431.490110
4456.508266
4439.118254
4445.944128
4422.494945
4434.359954
4435.756565
4446.180553
4431.359471
4438.385849
4431.608761
4416.105759
4433.717979
4422.682529
4446.464029
4435.434275
4434.126103
4441.080014
4447.599485
4446.691587
4433.841446
4429.642338
4432.358471
4448.634382
4428.321255
4418.195088
4429.267332
4449.624713
4414.520181
4457.494567
4439.522437
4433.630618
4409.026553
4456.089229
4411.263185
4452.658830
4443.826241
4434.840945