# vtk DataFile Version 2.0
mfree iwf
ASCII

DATASET UNSTRUCTURED_GRID
POINTS 6231 float
0.000000 0.000300 0.000000
0.000000 0.000310 0.000000
0.000000 0.000320 0.000000
0.000000 0.000330 0.000000
0.000000 0.000340 0.000000
0.000001 0.000350 0.000000
0.000001 0.000360 0.000000
0.000001 0.000371 0.000000
0.000001 0.000381 0.000000
0.000001 0.000391 0.000000
0.000001 0.000401 0.000000
0.000001 0.000411 0.000000
0.000001 0.000421 0.000000
0.000001 0.000431 0.000000
0.000001 0.000441 0.000000
0.000002 0.000451 0.000000
0.000002 0.000461 0.000000
0.000002 0.000471 0.000000
0.000002 0.000480 0.000000
0.000001 0.000492 0.000000
0.000006 0.000501 0.000000
0.000079 0.000519 0.000000
0.000080 0.000549 0.000000
0.000080 0.000541 0.000000
0.000080 0.000561 0.000000
0.000080 0.000567 0.000000
0.000080 0.000584 0.000000
0.000080 0.000586 0.000000
0.000080 0.000599 0.000000
0.000080 0.000613 0.000000
0.000080 0.000656 0.000000
0.000010 0.000300 0.000000
0.000010 0.000310 0.000000
0.000010 0.000320 0.000000
0.000010 0.000330 0.000000
0.000010 0.000340 0.000000
0.000010 0.000351 0.000000
0.000011 0.000360 0.000000
0.000011 0.000370 0.000000
0.000011 0.000380 0.000000
0.000011 0.000391 0.000000
0.000011 0.000400 0.000000
0.000011 0.000410 0.000000
0.000011 0.000420 0.000000
0.000011 0.000431 0.000000
0.000011 0.000440 0.000000
0.000012 0.000451 0.000000
0.000012 0.000460 0.000000
0.000011 0.000471 0.000000
0.000013 0.000479 0.000000
0.000009 0.000492 0.000000
0.000013 0.000498 0.000000
0.000084 0.000542 0.000000
0.000090 0.000558 0.000000
0.000088 0.000571 0.000000
0.000089 0.000579 0.000000
0.000088 0.000601 0.000000
0.000087 0.000609 0.000000
0.000086 0.000624 0.000000
0.000083 0.000633 0.000000
0.000082 0.000640 0.000000
0.000080 0.000648 0.000000
0.000020 0.000300 0.000000
0.000020 0.000310 0.000000
0.000020 0.000320 0.000000
0.000020 0.000330 0.000000
0.000021 0.000340 0.000000
0.000020 0.000350 0.000000
0.000021 0.000360 0.000000
0.000020 0.000371 0.000000
0.000021 0.000380 0.000000
0.000021 0.000390 0.000000
0.000021 0.000400 0.000000
0.000021 0.000411 0.000000
0.000021 0.000420 0.000000
0.000021 0.000431 0.000000
0.000021 0.000440 0.000000
0.000022 0.000451 0.000000
0.000022 0.000460 0.000000
0.000022 0.000471 0.000000
0.000021 0.000481 0.000000
0.000024 0.000494 0.000000
0.000020 0.000497 0.000000
0.000095 0.000539 0.000000
0.000100 0.000550 0.000000
0.000094 0.000558 0.000000
0.000099 0.000573 0.000000
0.000096 0.000585 0.000000
0.000094 0.000596 0.000000
0.000093 0.000614 0.000000
0.000088 0.000630 0.000000
0.000091 0.000643 0.000000
0.000092 0.000653 0.000000
0.000030 0.000300 0.000000
0.000030 0.000310 0.000000
0.000030 0.000321 0.000000
0.000030 0.000330 0.000000
0.000031 0.000340 0.000000
0.000029 0.000351 0.000000
0.000032 0.000361 0.000000
0.000030 0.000370 0.000000
0.000032 0.000380 0.000000
0.000030 0.000391 0.000000
0.000032 0.000400 0.000000
0.000030 0.000410 0.000000
0.000032 0.000420 0.000000
0.000030 0.000431 0.000000
0.000033 0.000440 0.000000
0.000030 0.000451 0.000000
0.000033 0.000460 0.000000
0.000030 0.000471 0.000000
0.000033 0.000479 0.000000
0.000031 0.000488 0.000000
0.000032 0.000498 0.000000
0.000062 0.000500 0.000000
0.000106 0.000557 0.000000
0.000101 0.000568 0.000000
0.000103 0.000586 0.000000
0.000102 0.000597 0.000000
0.000102 0.000606 0.000000
0.000100 0.000617 0.000000
0.000100 0.000627 0.000000
0.000101 0.000638 0.000000
0.000100 0.000652 0.000000
0.000040 0.000300 0.000000
0.000040 0.000310 0.000000
0.000040 0.000320 0.000000
0.000040 0.000330 0.000000
0.000040 0.000341 0.000000
0.000040 0.000350 0.000000
0.000041 0.000360 0.000000
0.000039 0.000371 0.000000
0.000043 0.000381 0.000000
0.000039 0.000390 0.000000
0.000042 0.000399 0.000000
0.000040 0.000411 0.000000
0.000043 0.000421 0.000000
0.000039 0.000430 0.000000
0.000043 0.000439 0.000000
0.000040 0.000451 0.000000
0.000043 0.000460 0.000000
0.000041 0.000471 0.000000
0.000044 0.000479 0.000000
0.000043 0.000497 0.000000
0.000040 0.000498 0.000000
0.000080 0.000506 0.000000
0.000114 0.000555 0.000000
0.000114 0.000569 0.000000
0.000110 0.000579 0.000000
0.000113 0.000592 0.000000
0.000109 0.000610 0.000000
0.000110 0.000624 0.000000
0.000109 0.000633 0.000000
0.000108 0.000643 0.000000
0.000109 0.000652 0.000000
0.000050 0.000300 0.000000
0.000050 0.000310 0.000000
0.000050 0.000320 0.000000
0.000051 0.000331 0.000000
0.000050 0.000339 0.000000
0.000050 0.000350 0.000000
0.000051 0.000361 0.000000
0.000051 0.000370 0.000000
0.000051 0.000379 0.000000
0.000050 0.000390 0.000000
0.000053 0.000401 0.000000
0.000049 0.000410 0.000000
0.000053 0.000419 0.000000
0.000050 0.000430 0.000000
0.000054 0.000441 0.000000
0.000049 0.000450 0.000000
0.000054 0.000459 0.000000
0.000050 0.000471 0.000000
0.000054 0.000480 0.000000
0.000050 0.000488 0.000000
0.000049 0.000498 0.000000
0.000087 0.000534 0.000000
0.000097 0.000529 0.000000
0.000116 0.000568 0.000000
0.000118 0.000586 0.000000
0.000116 0.000600 0.000000
0.000119 0.000607 0.000000
0.000116 0.000616 0.000000
0.000120 0.000627 0.000000
0.000118 0.000641 0.000000
0.000119 0.000652 0.000000
0.000060 0.000300 0.000000
0.000060 0.000310 0.000000
0.000060 0.000320 0.000000
0.000060 0.000330 0.000000
0.000060 0.000340 0.000000
0.000061 0.000351 0.000000
0.000060 0.000359 0.000000
0.000061 0.000370 0.000000
0.000060 0.000381 0.000000
0.000061 0.000391 0.000000
0.000061 0.000399 0.000000
0.000060 0.000410 0.000000
0.000063 0.000421 0.000000
0.000059 0.000431 0.000000
0.000064 0.000439 0.000000
0.000060 0.000450 0.000000
0.000064 0.000460 0.000000
0.000060 0.000470 0.000000
0.000064 0.000479 0.000000
0.000069 0.000488 0.000000
0.000058 0.000496 0.000000
0.000088 0.000526 0.000000
0.000111 0.000545 0.000000
0.000128 0.000573 0.000000
0.000124 0.000581 0.000000
0.000126 0.000593 0.000000
0.000127 0.000610 0.000000
0.000128 0.000623 0.000000
0.000126 0.000633 0.000000
0.000128 0.000641 0.000000
0.000128 0.000651 0.000000
0.000070 0.000300 0.000000
0.000070 0.000310 0.000000
0.000070 0.000320 0.000000
0.000070 0.000330 0.000000
0.000071 0.000340 0.000000
0.000070 0.000349 0.000000
0.000071 0.000360 0.000000
0.000071 0.000372 0.000000
0.000070 0.000379 0.000000
0.000071 0.000389 0.000000
0.000071 0.000401 0.000000
0.000072 0.000411 0.000000
0.000071 0.000419 0.000000
0.000071 0.000430 0.000000
0.000073 0.000441 0.000000
0.000069 0.000451 0.000000
0.000074 0.000459 0.000000
0.000070 0.000470 0.000000
0.000074 0.000480 0.000000
0.000068 0.000495 0.000000
0.000076 0.000497 0.000000
0.000086 0.000509 0.000000
0.000104 0.000541 0.000000
0.000122 0.000558 0.000000
0.000135 0.000584 0.000000
0.000132 0.000598 0.000000
0.000135 0.000605 0.000000
0.000135 0.000617 0.000000
0.000138 0.000628 0.000000
0.000137 0.000641 0.000000
0.000138 0.000651 0.000000
0.000080 0.000300 0.000000
0.000080 0.000310 0.000000
0.000080 0.000320 0.000000
0.000081 0.000330 0.000000
0.000080 0.000340 0.000000
0.000080 0.000350 0.000000
0.000081 0.000361 0.000000
0.000080 0.000369 0.000000
0.000081 0.000380 0.000000
0.000080 0.000392 0.000000
0.000081 0.000400 0.000000
0.000081 0.000409 0.000000
0.000081 0.000420 0.000000
0.000082 0.000431 0.000000
0.000081 0.000439 0.000000
0.000082 0.000449 0.000000
0.000083 0.000462 0.000000
0.000080 0.000472 0.000000
0.000086 0.000477 0.000000
0.000083 0.000487 0.000000
0.000087 0.000498 0.000000
0.000090 0.000517 0.000000
0.000098 0.000518 0.000000
0.000131 0.000565 0.000000
0.000138 0.000577 0.000000
0.000141 0.000593 0.000000
0.000144 0.000607 0.000000
0.000144 0.000619 0.000000
0.000145 0.000630 0.000000
0.000147 0.000640 0.000000
0.000148 0.000650 0.000000
0.000090 0.000300 0.000000
0.000090 0.000310 0.000000
0.000091 0.000321 0.000000
0.000090 0.000330 0.000000
0.000090 0.000340 0.000000
0.000090 0.000350 0.000000
0.000091 0.000360 0.000000
0.000090 0.000371 0.000000
0.000091 0.000381 0.000000
0.000090 0.000389 0.000000
0.000092 0.000400 0.000000
0.000090 0.000412 0.000000
0.000092 0.000421 0.000000
0.000091 0.000428 0.000000
0.000091 0.000440 0.000000
0.000093 0.000452 0.000000
0.000090 0.000459 0.000000
0.000094 0.000468 0.000000
0.000092 0.000483 0.000000
0.000094 0.000493 0.000000
0.000097 0.000502 0.000000
0.000101 0.000510 0.000000
0.000107 0.000531 0.000000
0.000119 0.000541 0.000000
0.000130 0.000553 0.000000
0.000147 0.000589 0.000000
0.000151 0.000603 0.000000
0.000152 0.000615 0.000000
0.000155 0.000628 0.000000
0.000157 0.000638 0.000000
0.000158 0.000649 0.000000
0.000100 0.000300 0.000000
0.000100 0.000310 0.000000
0.000100 0.000320 0.000000
0.000100 0.000330 0.000000
0.000101 0.000341 0.000000
0.000100 0.000350 0.000000
0.000101 0.000360 0.000000
0.000100 0.000370 0.000000
0.000101 0.000379 0.000000
0.000100 0.000391 0.000000
0.000102 0.000402 0.000000
0.000100 0.000409 0.000000
0.000102 0.000419 0.000000
0.000100 0.000432 0.000000
0.000103 0.000441 0.000000
0.000101 0.000448 0.000000
0.000102 0.000461 0.000000
0.000104 0.000472 0.000000
0.000100 0.000479 0.000000
0.000106 0.000487 0.000000
0.000105 0.000497 0.000000
0.000109 0.000514 0.000000
0.000111 0.000524 0.000000
0.000117 0.000530 0.000000
0.000147 0.000577 0.000000
0.000154 0.000590 0.000000
0.000158 0.000600 0.000000
0.000161 0.000615 0.000000
0.000163 0.000624 0.000000
0.000165 0.000637 0.000000
0.000167 0.000647 0.000000
0.000110 0.000300 0.000000
0.000110 0.000310 0.000000
0.000110 0.000320 0.000000
0.000111 0.000330 0.000000
0.000110 0.000339 0.000000
0.000111 0.000350 0.000000
0.000111 0.000361 0.000000
0.000110 0.000370 0.000000
0.000111 0.000380 0.000000
0.000111 0.000390 0.000000
0.000111 0.000399 0.000000
0.000111 0.000410 0.000000
0.000112 0.000422 0.000000
0.000110 0.000429 0.000000
0.000113 0.000438 0.000000
0.000111 0.000452 0.000000
0.000114 0.000461 0.000000
0.000111 0.000468 0.000000
0.000114 0.000480 0.000000
0.000114 0.000494 0.000000
0.000113 0.000503 0.000000
0.000119 0.000511 0.000000
0.000122 0.000520 0.000000
0.000125 0.000544 0.000000
0.000137 0.000561 0.000000
0.000146 0.000566 0.000000
[...]
POINT_DATA 6231
SCALARS density float 1
LOOKUP_TABLE default
4389.808591
4421.504525
4422.341130
4424.165020
4419.799362
4420.418106
4428.927325
4426.121407
4421.031369
4425.183432
4428.912373
4430.388992
4425.356948
4429.978245
4427.823463
4433.264903
4429.215015
4445.858322
4428.408182
4430.149085
4411.192253
4641.372732
4402.946172
4602.194065
4530.871603
4488.787719
4478.032084
4530.680563
4490.679615
4559.669105
4387.403133
4400.622856
4420.226004
4422.684763
4419.446249
4416.662181
4427.443918
4422.423309
4419.594036
4422.972636
4431.407825
4422.823031
4423.770447
4424.327463
4436.891092
4420.203773
4439.924799
4409.078410
4427.671494
4408.058255
4478.455757
4406.225954
4438.287170
4480.479508
4405.346457
4485.752442
4418.868643
4416.396675
4405.556276
4407.329971
4414.055353
4548.029348
4413.487009
4412.906248
4416.271390
4416.313002
4427.977616
4430.084325
4406.521458
4433.775494
4425.045285
4424.776705
4415.489866
4439.640911
4419.501232
4434.381737
4411.343258
4454.175979
4395.802422
4490.722572
4342.079338
4438.705494
4398.578386
4470.913774
4453.971790
4470.614277
4481.849569
4416.783154
4430.290260
4466.815886
4445.661203
4479.130415
4417.207733
4405.037663
4415.107680
4433.178484
4424.901672
4414.814545
4413.150681
4439.735791
4440.361018
4395.594116
4438.661632
4419.432495
4441.352543
4404.141198
4446.486049
4409.792976
4447.668245
4383.798881
4477.631022
4334.718542
4627.884930
4354.575223
4389.405686
4455.917975
4449.569607
4469.671354
4467.720252
4447.574479
4437.320683
4423.180303
4470.327376
4440.004967
4406.631175
4434.666223
4421.386080
4408.506650
4435.347262
4430.424177
4415.964214
4413.487795
4447.020924
4448.360530
4398.694193
4437.596078
4424.079250
4450.890469
4396.414858
4451.579095
4409.779572
4480.081548
4334.065255
4421.712765
4374.326254
4571.441846
4414.988166
4474.016618
4416.033674
4444.367876
4445.024024
4451.800280
4452.244839
4380.614392
4447.917181
4424.849737
4428.351702
4401.831417
4440.865939
4430.640460
4411.311579
4425.333578
4434.145944
4428.894152
4408.029076
4453.863791
4446.513650
4405.641490
4437.906584
4419.898148
4455.020308
4372.524826
4480.314961
4380.133699
4568.431811
4389.021157
4422.744056
4508.857524
4468.854009
4472.734663
4417.778067
4469.776502
4449.842691
4417.849922
4454.843436
4441.316552
4417.204581
4417.148512
4431.842073
4439.856889
4396.687317
4442.739969
4441.880360
4412.345362
4412.746895
4440.220710
4441.537917
4401.197077
4450.452296
4437.624423
4409.972645
4444.033750
4427.073379
4459.810588
4397.973219
4529.669509
4421.783811
4421.130242
4501.852068
4427.430286
4466.904794
4431.056197
4440.950166
4457.415323
4439.436242
4416.792871
4440.402843
4417.180619
4436.812556
4429.691073
4403.975824
4438.170959
4442.624820
4392.782258
4443.732948
4444.369244
4415.644451
4401.335787
4444.802279
4447.496538
4396.646896
4443.069082
4418.061279
4409.931546
4433.062903
4430.404279
4393.778842
4388.998216
4398.547267
4443.258081
4473.244859
4470.187686
4464.179240
4465.702804
4420.189973
4441.273076
4431.988549
4444.002519
4433.213084
4424.734921
4410.702619
4437.323815
4437.489610
4402.006898
4445.195491
4444.322429
4394.898613
4433.564669
4446.109627
4425.439843
4393.673082
4444.892884
4452.173223
4387.472431
4437.648741
4402.031578
4445.973825
4407.919406
4500.507953
4443.102521
4479.824747
4465.010399
4458.186042
4450.663623
4442.497986
4453.378088
4439.837197
4441.523156
4424.777073
4422.863396
4418.094338
4441.670035
4436.248741
4405.356558
4433.014923
4439.037363
4400.084401
4454.091889
4444.928695
4398.185357
4416.120631
4449.552278
4436.644226
4391.169662
4447.249960
4453.406731
4388.726910
4445.807692
4419.009613
4452.535028
4468.333622
4434.414163
4455.419858
4441.490629
4474.663465
4445.016897
4454.163357
4425.193151
4436.996625
4433.603218
4422.496635
4435.207687
4432.925670
4402.896566
4445.514630
4441.172228
4405.499423
4433.205711
4437.498025
4399.045358
4458.165903
4449.149675
4398.319026
4400.369027
4453.420560
4442.274692
4379.466187
4452.584156
4436.797300
4398.762509
4447.329918
4444.312917
4465.733530
4463.249880
4428.899478
4458.673170
4446.623465
4468.641595
4438.279016
4447.099180
4428.321795
4428.614376
4428.249931
4414.074317
4444.771647
4442.760814
4399.207042
4444.833363
4436.213386
4407.493087
4439.709231
4436.486589
4395.507062
4455.302581
4456.544894
4394.776626
4396.215074
4451.880797
4451.736095
4386.297749
4459.880304
4421.129287
4454.277268
4450.632769
4455.882336
4441.021221
4448.413633
4463.930524
4462.654004
4417.053328
4458.433825
4407.104029
4427.532527
4433.139473
4437.429992
4431.037232
4404.236460
4451.248145
4445.318704
4402.449242
4442.840695
4430.700765
4408.821838
4449.649054
4440.586396
4395.648190
4450.759553
4460.318551
4401.313015
4401.023316
4447.772666
4459.117551
4404.666962
4469.386723
4434.919545
4460.283814
4459.270549
4472.653660
4433.144091
4478.508621
4432.161565
4465.339164
4420.201416
4437.309920
4427.381856
4421.352188
4422.681979
4442.319479
4439.499251
4400.059221
4454.955231
4437.360412
4412.287753
4443.621388
4425.398112
4402.700438
4450.643888
4454.845462
4386.456448
4445.386557
4461.954500
4409.157067
4428.457444
4449.579807
4434.839822
4454.233245
4430.357744
4449.568586
4444.347454
4403.839055
4447.386416
4425.349960
4459.181460
4420.077749
4428.474695
4420.172830
4439.816331
4439.191689
4421.449727
4413.480537
4448.720781
4446.805588
4400.919393
4453.531050
4424.345498
4422.980951
4447.606416
4422.025132
4391.945148
4455.504479
4462.082741
4375.702940
4446.659002
4426.983244
4432.493705
4440.923242
4462.005998
4435.121537
4461.166190
4433.739269
4457.016145
4403.145751
4467.383026
4438.536652
4447.335596
4423.086697
4439.052475
4437.676165
4408.855713
4436.786399
4442.820534
4422.962171
4409.060877
4454.162417
4442.375557
4407.017332
4451.633945
4416.051177
4434.483837
4445.294559
4427.401204
4386.603851
4451.312728
4472.811553
4375.392362
4458.916117
4415.612931
4452.890780
4442.788720
4441.725184
4438.065662
4454.830391
4420.522404
4472.967012
4394.214984
4443.771171
4436.357729
4434.041163
4411.238102
4444.487929
4447.153080
4408.484992
4428.099781
4446.331895
4431.369214
4409.595559
4453.329513
4429.286908
4419.534603
4446.999148
4418.795407
4427.571518
4449.667039
4434.574342
4398.423138
4456.429176
4456.519922
4411.400883
4460.436163
4433.346917
4463.774004
4416.079029
4451.660331
4442.227504
4517.583250
4399.169514
4445.124481
4428.869893
4424.440245
4438.992801
4444.061148
4402.655550
4449.243951
4451.073239
4406.680919
4418.497799
4450.172383
4439.149752
4409.037620
4453.839088
4416.737517
4435.808107
4441.291378
4429.019856
4421.447100
4440.717565
4459.570399
4388.800555
4430.070386
4447.519162
4436.062714
4446.103362
4443.842990
4458.188830
4435.328493
4459.667340
4406.655251
4435.906394
4429.427275
4437.963729
4431.691175
4413.096169
4439.969407
4450.378397
4399.627382
4450.891659
4456.207712
4403.213294
4416.539043
4451.923417
4433.695836
4406.384312
4450.788712
4415.901211
4444.981974
4419.912629
4434.051075
4419.933022
4458.221939
4457.132176
4422.456530
4443.330048
4443.633281
4442.657567
4448.237322
4416.628402
4380.617523
4441.663686
4420.892196
4432.683996
4431.282061
4420.596532
4444.961954
4440.916627
4404.591570
4442.082275
4451.330288
4397.779413
4450.029615
4457.743106
4401.401163
4422.742377
4446.524107
4430.347892
4400.001632
4450.611748
4418.934854
4454.251685
4413.156784
4423.149216
4426.924274
4438.055615
4457.637685
4436.939351
4453.542981
4433.629974
4466.261308
4423.263528
4513.131331
4394.367038
4430.704043
4434.916193
4439.216315
4431.998740
4412.721824
4447.518293
4447.508108
4400.825862
4442.290015
4453.879158
4396.919764
4449.475145
4455.840609
4395.252276
4433.284001
4429.044151
4431.278098
4416.954110
4448.701377
4404.295915
4471.805401
4422.696349
4451.917584
4437.442275
4439.021173
4450.209880
4447.410690
4453.593360
4413.461876
4447.037711
4410.894230
4441.436954
4430.639022
4425.076113
4427.689343
4443.208193
4437.021746
4406.505288
4448.776322
4449.511805
4398.274334
4445.230052
4457.516613
4399.741483
4451.373196
4447.291316
4400.406522
4451.545544
4410.227013
4439.800729
4439.650819
4443.452930
4392.395811
4457.811996
4426.462070
4465.687732
4448.677071
4452.305625
4426.773770
4498.490991
4431.867419
4509.575880
4432.689732
4422.565993
4442.931272
4441.260839
4423.647796
4421.429967
4446.573141
4442.778790
4403.142759
4447.604171
4451.206248
4393.557960
4446.868973
4463.354940
4397.776643
4450.264984
4421.287460
4409.493305
4449.702311
4418.112927
4442.663578
4453.534157
4437.755764
4427.540933
4463.698757
4410.392100
4484.033944
4453.409173
4490.862086
4430.067511
4488.221307
4431.044253
4437.782507
4439.012810
4413.842487
4440.335127
4444.922498
4424.059689
4416.276173
4450.517825
4445.765488
4401.545593
4448.419714
4454.130393
4388.982151
4447.760067
4464.189081
4395.088917
4460.307562
4411.472642
4416.509485
4449.143739
4441.275023
4424.978668
4462.784681
4455.139918
4445.368580
4470.550332
4416.293500
4469.184310
4426.583656
4462.880811
4435.009526
4432.684810
4419.946750
4444.683463
4448.338926
4411.847036
4436.637810
4445.863329
4428.158339
4414.257432
4450.544136
4445.475574
4400.853162
4451.764509
4457.221826
4388.248514
4455.747488
4454.882961
4393.227329
4467.142518
4422.982808
4429.830529
4470.337311
4418.687357
4444.313614
4457.977248
4453.748250
4460.318611
4454.999679
4444.612764
4460.118584
4433.502355
4435.923969
4440.972893
4435.702817
4412.540862
4449.132401
4452.603705
4411.801182
4429.254889
4447.488052
4436.764338
4413.970849
4450.034680
4447.884901
4399.884325
4456.481521
4465.147104
4393.940696
4463.699253
4434.716056
4409.083672
4464.964957
4438.154035
4417.377586
4472.297552
4424.502216
4471.286550
4432.390099
4458.910566
4457.308130
4464.925867
4443.507293
4433.949679
4424.472282
4430.737897
4442.381219
4442.828661
4408.259874
4453.241666
4455.144022
4409.811433
4425.325971
4448.352222
4443.842910
4412.521107
4448.864347
4453.756366
4392.798084
4458.759450
4468.561841
4390.743517
4458.725031
4415.334875
4444.702205
4459.438086
4450.369164
4412.784146
4473.181001
4425.793979
4482.584879
4435.126631
4460.241092
4435.348181
4425.450618
4441.243449
4444.425966
4423.966047
4424.177313
4445.391516
4448.919024
4406.732086
4453.848331
4457.098129
4410.396635
4426.162665
4451.199283
4449.326952
4409.908284
4448.892236
4458.485800
4390.906226
4464.123857
4459.108326
4396.333863
4468.667070
4417.266870
4459.958218
4452.107207
4456.648414
4450.909467
4463.797699
4443.101285
4458.575959
4431.631679
4439.216976
4440.816055
4416.118524
4440.521541
4445.956554
4427.299309
4419.428705
4448.400821
4455.454332
4402.491045
4453.706166
4456.796512
4410.251981
4429.526286
4448.890552
4457.902097
4404.410328
4448.590384
4463.472364
4398.598772
4444.935726
4432.716486
4437.335595
4455.478474
4434.666440
4457.001824
4452.581271
4447.676902
4451.144248
4453.785706
4440.065152
4435.925854
4419.680905
4445.501980
4449.024554
4414.522736
4436.584440
4446.617359
4434.286176
4415.936963
4451.796915
4460.138594
4398.653553
4452.244486
4455.842568
4410.898390
4427.386546
4449.801824
4459.545622
4401.403243
4451.391601
4461.359573
4415.900662
4454.864092
4431.844999
4459.392103
4447.734414
4442.166420
4456.789898
4451.070281
4449.205259
4436.584519
4432.038784
4441.414649
4442.927248
4412.410305
4450.391112
4452.598963
4412.709026
4430.880106
4446.291684
4444.744201
4409.923654
4454.802846
4463.138492
4397.326238
4447.049758
4453.015230
4414.842944
4422.398311
4448.768334
4449.977958
4408.627858
4436.963182
4437.441276
4443.566292
4455.895035
4430.325083
4465.281362
4439.663403
4454.683384
4449.674293
4441.195235
4434.767015
4431.355671
4424.429635
4443.506497
4449.438062
4408.374288
4452.128563
4453.634548
4412.750966
4427.284102
4447.162846
4455.277551
4402.221066
4457.493436
4460.784221
4404.634045
4433.129035
4449.723560
4435.361753
4416.884149
4451.583378
4442.983671
4437.676646
4442.199847
4436.984664
4458.032803
4447.850677
4445.722811
4452.768015
4447.787182
4434.817044
4427.890977
4436.866368
4442.334975
4435.159631
4416.700277
4448.552329
4453.694679
4405.340585
4449.052391
4452.456857
4416.086045
4423.195488
4446.927672
4462.764945
4394.103313
4455.967847
4462.422424
4403.724096
4423.290076
4451.777308
4439.355801
4418.559930
4452.241795
4432.209174
4451.201762
4445.891313
4436.950171
4454.017475
4446.369392
4447.850230
4431.678365
4439.466712
4440.795782
4422.747143
4432.517254
4444.028842
4441.042386
4411.540601
4452.741394
4456.563350
4404.147101
4441.310722
4450.876753
4424.845688
4414.414257
4448.686415
4461.211963
4390.434645
4448.140038
4455.946699
4406.463605
4423.427794
4455.355695
4434.907932
4441.530722
4446.354229
4434.998263
4456.738831
4445.498756
4448.420478
4449.097967
4443.673638
4438.033280
4420.421654
4443.653798
4444.938345
4422.508558
4426.776507
4445.806914
4448.327745
4407.111351
4455.384374
4457.443266
4404.235158
4431.140322
4449.936800
4440.871937
4407.382891
4449.639401
4456.784618
4402.926680
4428.433125
4446.865329
4430.250950
4434.169545
4447.863182
4435.158964
4451.613342
4443.722916
4446.327159
4447.631081
4446.354181
4437.242400
4424.905221
4441.022580
4445.473217
4414.890456
4443.091796
4446.064536
4424.252597
4421.556321
4447.573406
4454.165374
4403.478333
4454.135790
4455.640667
4405.736107
4425.252804
4445.839274
4452.789166
4403.566750
4444.807667
4455.311704
4415.075419
4420.911500
4452.066625
4439.103332
4442.469690
4446.528999
4443.406990
4448.579693
4447.039829
4446.314057
4432.662271
4438.848352
4441.034259
4416.896012
4444.049487
4448.743152
4411.745628
4439.262464
4446.179210
4429.570104
4414.926275
4448.364720
4454.336867
4401.016058
4444.837722
4453.267266
4408.694910
4421.334295
4444.190580
4448.918538
4405.443673
4432.646724
4446.471626
4428.965885
4432.460453
4447.478811
4439.650653
4444.194621
4447.367371
4445.582797
4445.973089
4441.464968
4436.375292
4421.900547
4440.707716
4446.418416
4411.004306
4448.516785
4450.178034
4411.151085
4431.102897
4445.958196
4440.068339
4408.836680
4450.081516
4452.123195
4404.792013
4430.444801
4448.213465
4423.599329
4420.392620
4445.226624
4444.208096
4421.947058
4426.556104
4443.999528
4445.886469
4437.752354
4448.114518
4446.061709
4447.200766
4444.625425
4435.661280
4424.237832
4442.418887
4441.838745
4415.571418
4441.878919
4448.962030
4407.176665
4449.465394
4450.251523
4411.558274
4423.519366
4446.251439
4448.585815
4406.357275
4448.565029
4450.981239
4410.907624
4418.526343
4449.196935
4436.810217
4424.541920
4441.009660
4438.896789
4436.037492
4432.982330
4440.329510
4451.507961
4440.331153
4450.152092
4441.701327
4432.104214
4439.484451
4440.182346
4418.036842
4441.738551
4445.590388
4411.066175
4444.858350
4449.295327
4405.073124
4444.866113
4448.277176
4415.877780
4417.677383
4445.617262
4448.752405
4405.429596
4437.878891
4447.677793
4418.849178
4417.393566
4447.992290
4436.315450
4431.506908
4435.236563
4440.814296
4446.319386
4440.089958
4445.975188
4446.877623
4443.639143
4438.460606
4434.874287
4420.307393
4443.560817
4444.555557
4413.743957
4441.945462
4445.534409
4408.171893
4448.533065
4448.010442
4406.046833
4434.341126
4446.134691
4424.991864
4412.294349
4446.539984
4444.312316
4409.770578
4423.706154
4444.347732
4431.899387
4424.029732
4446.748289
4438.477745
4438.726148
4438.308362
4440.348504
4449.049233
4441.591222
4445.112059
4434.971592
4431.527467
4441.740650
4440.346501
4414.974928
4445.631215
4445.841975
4412.079677
4440.443926
4445.553040
4405.875392
4450.775295
4448.205741
4407.634651
4422.994135
4445.290100
4436.512046
4412.366064
4446.049297
4444.190637
4419.280685
4419.134049
4447.461817
4440.370209
4433.341962
4445.251240
4439.416804
4446.078046
4443.256570
4444.982326
4440.961675
4437.481629
4433.163669
4431.293489
4422.933359
4443.250281
4444.527459
4410.137167
4446.632596
4444.512425
4411.271144
4440.135786
4444.060054
4404.580357
4448.153632
4446.984095
4411.240701
4417.239182
4447.936017
4441.635410
4416.155639
4439.276489
4439.896920
4429.267634
4424.058192
4445.481411
4443.026752
4437.627188
4445.536631
4441.279230
4448.229102
4441.807044
4433.525218
4427.214826
4435.193237
4441.185185
4433.606692
4417.395520
4446.235735
4445.262915
4408.532416
4444.121902
4442.778063
4411.347413
4441.502636
4443.443619
4404.595242
4439.416738
4443.793395
4418.169206
4416.840634
4447.221805
4440.490279
4423.704497
4431.826042
4439.901288
4438.943557
4432.169324
4443.767521
4444.672314
4440.514516
4445.605001
4439.733843
4427.902562
4440.113064
4437.535190
4422.839938
4429.167809
4442.517833
4436.943691
4412.765436
4447.821754
4443.728988
4409.467543
4440.233115
4440.761210
4410.516163
4445.119291
4442.599773
4410.818315
4428.102030
4442.858979
4430.307467
4418.805540
4446.040385
4438.198050
4431.471621
4431.064531
4441.728724
4443.385674
4437.602971
4445.664889
4443.433096
4441.064320
4438.577225
4436.838436
4417.941050
4441.375421
4442.989599
4421.926680
4424.368569
4443.710384
4440.787737
4409.161123
4446.655349
4440.817998
4413.059182
4438.184261
4440.795100
4410.242968
4446.033544
4443.215246
4416.267010
4420.876315
4444.729874
4439.988766
4424.699955
4444.153876
4438.013606
4437.910842
4436.035077
4441.489780
4446.467882
4440.824504
4442.443564
4433.551849
4424.585439
4439.045437
4443.995427
4412.751715
4440.372793
4443.639260
4421.990224
4419.754744
4445.149504
4443.520190
4407.729119
4443.838796
4436.758390
4415.307694
4440.521380
4440.280006
4412.511035
4443.041139
4441.787977
4423.013307
4420.809858
4445.551069
4442.841997
4431.895988
4442.574427
4439.025212
4443.108300
4439.380957
4442.389268
4438.111242
4429.952912
4437.818908
4437.812836
4415.832234
4439.652918
4447.416896
4410.932582
4437.828585
4443.025100
4424.032323
4415.792326
4445.717107
4443.362216
4410.503303
4440.897503
4435.224595
4416.564414
4443.109474
4439.852972
4417.424295
4437.214675
4441.393728
4431.687201
4426.197419
4443.799279
4442.803959
4435.867495
4443.405943
4440.208329
4445.713325
4440.146413
4435.841438
4432.886386
4421.073753
4439.938494
4443.606729
4410.001823
4442.208382
4446.673354
4411.498720
4432.610712
4441.832322
4429.594361
4411.738034
4444.983252
4440.922779
4414.295111
4439.701255
4436.714211
4417.760308
4444.846689
4438.952689
4424.403798
4431.100209
4442.173537
4439.249189
4431.691881
4443.196928
4441.905431
4439.181221
4441.779847
4437.723818
4431.989920
4428.809014
4440.231610
4437.043678
4415.265006
4440.889184
4446.594008
4407.674006
4443.564026
4445.671328
4413.604499
4425.762983
4441.853614
4435.932735
4409.645748
4444.021803
4437.965259
4417.864046
4440.421409
4439.008800
4420.694827
4444.974374
4439.802547
4430.647453
4431.655680
4441.482669
4442.425236
4435.750346
4443.584462
4440.904865
4438.727835
4434.661158
4432.043057
4431.943712
4421.051079
4441.718703
4441.333740
4409.888985
4441.841881
4446.924874
4406.863087
4443.528688
4443.598731
4416.583932
4420.991098
4442.902852
4439.590513
4411.600183
4442.531836
4436.398147
4420.853909
4441.702385
4440.058311
4425.201811
4442.295629
4440.239374
4435.875864
4435.522305
4440.261675
4444.440392
4438.328271
4440.079960
4431.103343
4426.727260
4431.964352
4438.978469
4433.783010
4415.814051
4444.086877
4443.076170
4408.121944
4442.025988
4446.109600
4407.762133
4440.359537
4441.498715
4420.944266
4418.529192
4442.860331
4441.417593
4415.978073
4442.096265
4436.858131
4423.820573
4442.859210
4441.000858
4430.561365
4440.210695
4440.706858
4439.668030
4437.424726
4439.476596
4436.492373
4426.897167
4437.714027
4436.740660
4423.459776
4427.158969
4440.809383
4437.062535
4411.548265
4444.872965
4443.104136
4408.447546
4441.973464
4444.773848
4410.560000
4435.874007
4440.980203
4426.337667
4417.863327
4442.089268
4440.807048
4420.504985
4442.285225
4438.249651
4427.120100
4442.414217
4441.781436
4434.093045
4440.686892
4439.517455
4442.175491
4438.593391
4435.807711
4435.131590
4417.864473
4438.751950
4440.800021
4423.552448
4422.593223
4442.989092
4440.816593
4409.063252
4444.162789
4442.863574
4409.711925
4441.805870
4443.035942
4414.879330
4430.466997
4440.865025