# vtk DataFile Version 2.0
mfree iwf
ASCII

DATASET UNSTRUCTURED_GRID
POINTS 6231 float
0.000000 0.000300 0.000000
0.000000 0.000310 0.000000
0.000000 0.000320 0.000000
0.000000 0.000330 0.000000
0.000000 0.000340 0.000000
0.000000 0.000350 0.000000
0.000001 0.000360 0.000000
0.000001 0.000370 0.000000
0.000001 0.000380 0.000000
0.000001 0.000390 0.000000
0.000001 0.000400 0.000000
0.000001 0.000410 0.000000
0.000001 0.000420 0.000000
0.000001 0.000430 0.000000
0.000001 0.000440 0.000000
0.000002 0.000450 0.000000
0.000002 0.000460 0.000000
0.000002 0.000471 0.000000
0.000002 0.000480 0.000000
0.000002 0.000492 0.000000
0.000006 0.000501 0.000000
0.000598 0.000845 0.000000
0.000659 0.000897 0.000000
0.000612 0.000857 0.000000
0.000671 0.000905 0.000000
0.000691 0.000915 0.000000
0.000738 0.000930 0.000000
0.000746 0.000930 0.000000
0.000759 0.000928 0.000000
0.000772 0.000928 0.000000
0.000804 0.000935 0.000000
0.000010 0.000300 0.000000
0.000010 0.000310 0.000000
0.000010 0.000320 0.000000
0.000010 0.000330 0.000000
0.000010 0.000340 0.000000
0.000010 0.000350 0.000000
0.000011 0.000360 0.000000
0.000011 0.000370 0.000000
0.000011 0.000380 0.000000
0.000011 0.000390 0.000000
0.000011 0.000400 0.000000
0.000011 0.000410 0.000000
0.000011 0.000420 0.000000
0.000011 0.000430 0.000000
0.000011 0.000440 0.000000
0.000012 0.000450 0.000000
0.000012 0.000460 0.000000
0.000012 0.000472 0.000000
0.000013 0.000478 0.000000
0.000010 0.000492 0.000000
0.000013 0.000498 0.000000
0.000710 0.000916 0.000000
0.000725 0.000920 0.000000
0.000732 0.000923 0.000000
0.000739 0.000922 0.000000
0.000756 0.000920 0.000000
0.000768 0.000921 0.000000
0.000782 0.000920 0.000000
0.000793 0.000923 0.000000
0.000799 0.000923 0.000000
0.000801 0.000930 0.000000
0.000020 0.000300 0.000000
0.000020 0.000310 0.000000
0.000020 0.000320 0.000000
0.000020 0.000330 0.000000
0.000021 0.000340 0.000000
0.000020 0.000350 0.000000
0.000021 0.000360 0.000000
0.000021 0.000370 0.000000
0.000021 0.000380 0.000000
0.000021 0.000390 0.000000
0.000021 0.000400 0.000000
0.000022 0.000410 0.000000
0.000021 0.000420 0.000000
0.000022 0.000431 0.000000
0.000020 0.000440 0.000000
0.000024 0.000451 0.000000
0.000021 0.000460 0.000000
0.000022 0.000470 0.000000
0.000021 0.000481 0.000000
0.000024 0.000494 0.000000
0.000020 0.000497 0.000000
0.000681 0.000898 0.000000
0.000708 0.000911 0.000000
0.000717 0.000915 0.000000
0.000723 0.000913 0.000000
0.000734 0.000909 0.000000
0.000748 0.000915 0.000000
0.000775 0.000915 0.000000
0.000789 0.000918 0.000000
0.000799 0.000911 0.000000
0.000806 0.000910 0.000000
0.000030 0.000300 0.000000
0.000030 0.000310 0.000000
0.000030 0.000320 0.000000
0.000031 0.000330 0.000000
0.000030 0.000340 0.000000
0.000030 0.000350 0.000000
0.000031 0.000359 0.000000
0.000030 0.000370 0.000000
0.000032 0.000380 0.000000
0.000030 0.000390 0.000000
0.000031 0.000400 0.000000
0.000031 0.000411 0.000000
0.000031 0.000420 0.000000
0.000031 0.000430 0.000000
0.000032 0.000440 0.000000
0.000030 0.000450 0.000000
0.000032 0.000459 0.000000
0.000036 0.000473 0.000000
0.000030 0.000478 0.000000
0.000033 0.000488 0.000000
0.000032 0.000497 0.000000
0.000063 0.000500 0.000000
0.000702 0.000905 0.000000
0.000719 0.000900 0.000000
0.000746 0.000907 0.000000
0.000755 0.000901 0.000000
0.000759 0.000912 0.000000
0.000766 0.000907 0.000000
0.000776 0.000906 0.000000
0.000784 0.000907 0.000000
0.000807 0.000902 0.000000
0.000040 0.000300 0.000000
0.000040 0.000310 0.000000
0.000041 0.000320 0.000000
0.000040 0.000329 0.000000
0.000040 0.000340 0.000000
0.000041 0.000351 0.000000
0.000040 0.000360 0.000000
0.000041 0.000370 0.000000
0.000041 0.000380 0.000000
0.000040 0.000390 0.000000
0.000043 0.000399 0.000000
0.000040 0.000410 0.000000
0.000043 0.000420 0.000000
0.000040 0.000431 0.000000
0.000043 0.000439 0.000000
0.000043 0.000450 0.000000
0.000043 0.000460 0.000000
0.000036 0.000469 0.000000
0.000045 0.000477 0.000000
0.000043 0.000496 0.000000
0.000040 0.000498 0.000000
0.000535 0.000682 0.000000
0.000711 0.000897 0.000000
0.000729 0.000900 0.000000
0.000737 0.000896 0.000000
0.000743 0.000904 0.000000
0.000765 0.000896 0.000000
0.000788 0.000897 0.000000
0.000789 0.000887 0.000000
0.000797 0.000902 0.000000
0.000807 0.000893 0.000000
0.000050 0.000300 0.000000
0.000050 0.000310 0.000000
0.000050 0.000320 0.000000
0.000049 0.000331 0.000000
0.000052 0.000340 0.000000
0.000050 0.000348 0.000000
0.000051 0.000360 0.000000
0.000050 0.000371 0.000000
0.000052 0.000380 0.000000
0.000050 0.000390 0.000000
0.000052 0.000400 0.000000
0.000049 0.000411 0.000000
0.000053 0.000420 0.000000
0.000051 0.000430 0.000000
0.000053 0.000440 0.000000
0.000047 0.000451 0.000000
0.000054 0.000458 0.000000
0.000053 0.000469 0.000000
0.000056 0.000483 0.000000
0.000049 0.000488 0.000000
0.000050 0.000498 0.000000
0.000696 0.000910 0.000000
0.000657 0.000888 0.000000
0.000724 0.000893 0.000000
0.000742 0.000886 0.000000
0.000755 0.000891 0.000000
0.000772 0.000893 0.000000
0.000764 0.000885 0.000000
0.000780 0.000893 0.000000
0.000796 0.000890 0.000000
0.000805 0.000881 0.000000
0.000060 0.000300 0.000000
0.000060 0.000310 0.000000
0.000060 0.000321 0.000000
0.000061 0.000329 0.000000
0.000060 0.000340 0.000000
0.000059 0.000351 0.000000
0.000063 0.000361 0.000000
0.000059 0.000368 0.000000
0.000062 0.000381 0.000000
0.000059 0.000390 0.000000
0.000063 0.000400 0.000000
0.000061 0.000409 0.000000
0.000063 0.000419 0.000000
0.000058 0.000431 0.000000
0.000065 0.000439 0.000000
0.000061 0.000449 0.000000
0.000065 0.000460 0.000000
0.000055 0.000472 0.000000
0.000065 0.000475 0.000000
0.000068 0.000486 0.000000
0.000058 0.000496 0.000000
0.000687 0.000907 0.000000
0.000702 0.000895 0.000000
0.000720 0.000882 0.000000
0.000733 0.000885 0.000000
0.000750 0.000878 0.000000
0.000757 0.000874 0.000000
0.000786 0.000876 0.000000
0.000776 0.000881 0.000000
0.000795 0.000878 0.000000
0.000804 0.000872 0.000000
0.000070 0.000300 0.000000
0.000070 0.000310 0.000000
0.000070 0.000319 0.000000
0.000070 0.000331 0.000000
0.000071 0.000339 0.000000
0.000071 0.000350 0.000000
0.000071 0.000357 0.000000
0.000067 0.000373 0.000000
0.000075 0.000376 0.000000
0.000070 0.000390 0.000000
0.000072 0.000400 0.000000
0.000069 0.000412 0.000000
0.000074 0.000421 0.000000
0.000069 0.000429 0.000000
0.000075 0.000439 0.000000
0.000066 0.000452 0.000000
0.000077 0.000458 0.000000
0.000073 0.000470 0.000000
0.000076 0.000486 0.000000
0.000068 0.000495 0.000000
0.000076 0.000496 0.000000
0.000533 0.000656 0.000000
0.000691 0.000894 0.000000
0.000713 0.000887 0.000000
0.000736 0.000869 0.000000
0.000751 0.000887 0.000000
0.000767 0.000873 0.000000
0.000776 0.000876 0.000000
0.000774 0.000864 0.000000
0.000793 0.000868 0.000000
0.000803 0.000862 0.000000
0.000080 0.000300 0.000000
0.000080 0.000310 0.000000
0.000080 0.000320 0.000000
0.000080 0.000330 0.000000
0.000080 0.000341 0.000000
0.000082 0.000352 0.000000
0.000078 0.000362 0.000000
0.000082 0.000370 0.000000
0.000079 0.000383 0.000000
0.000079 0.000391 0.000000
0.000088 0.000396 0.000000
0.000080 0.000408 0.000000
0.000084 0.000417 0.000000
0.000079 0.000430 0.000000
0.000088 0.000445 0.000000
0.000077 0.000447 0.000000
0.000086 0.000463 0.000000
0.000074 0.000470 0.000000
0.000087 0.000473 0.000000
0.000085 0.000482 0.000000
0.000084 0.000495 0.000000
0.000678 0.000903 0.000000
0.000651 0.000892 0.000000
0.000721 0.000871 0.000000
0.000732 0.000879 0.000000
0.000746 0.000870 0.000000
0.000754 0.000863 0.000000
0.000762 0.000864 0.000000
0.000783 0.000863 0.000000
0.000792 0.000859 0.000000
0.000801 0.000852 0.000000
0.000090 0.000300 0.000000
0.000090 0.000310 0.000000
0.000090 0.000320 0.000000
0.000090 0.000329 0.000000
0.000091 0.000340 0.000000
0.000089 0.000348 0.000000
0.000091 0.000359 0.000000
0.000090 0.000368 0.000000
0.000091 0.000379 0.000000
0.000091 0.000388 0.000000
0.000085 0.000406 0.000000
0.000094 0.000409 0.000000
0.000089 0.000425 0.000000
0.000096 0.000426 0.000000
0.000088 0.000436 0.000000
0.000097 0.000455 0.000000
0.000086 0.000454 0.000000
0.000097 0.000471 0.000000
0.000106 0.000480 0.000000
0.000089 0.000494 0.000000
0.000094 0.000495 0.000000
0.000538 0.000699 0.000000
0.000686 0.000888 0.000000
0.000673 0.000892 0.000000
0.000704 0.000886 0.000000
0.000735 0.000859 0.000000
0.000759 0.000854 0.000000
0.000772 0.000857 0.000000
0.000780 0.000852 0.000000
0.000790 0.000849 0.000000
0.000799 0.000843 0.000000
0.000100 0.000300 0.000000
0.000100 0.000310 0.000000
0.000101 0.000320 0.000000
0.000100 0.000331 0.000000
0.000101 0.000341 0.000000
0.000099 0.000351 0.000000
0.000102 0.000361 0.000000
0.000099 0.000371 0.000000
0.000102 0.000381 0.000000
0.000099 0.000392 0.000000
0.000101 0.000399 0.000000
0.000103 0.000408 0.000000
0.000100 0.000418 0.000000
0.000100 0.000436 0.000000
0.000110 0.000443 0.000000
0.000097 0.000445 0.000000
0.000107 0.000460 0.000000
0.000098 0.000467 0.000000
0.000095 0.000481 0.000000
0.000106 0.000491 0.000000
0.000101 0.000494 0.000000
0.000616 0.000861 0.000000
0.000623 0.000868 0.000000
0.000646 0.000887 0.000000
0.000730 0.000866 0.000000
0.000746 0.000858 0.000000
0.000750 0.000849 0.000000
0.000771 0.000847 0.000000
0.000763 0.000842 0.000000
0.000786 0.000842 0.000000
0.000796 0.000834 0.000000
0.000110 0.000300 0.000000
0.000110 0.000310 0.000000
0.000110 0.000321 0.000000
0.000110 0.000329 0.000000
0.000110 0.000339 0.000000
0.000111 0.000350 0.000000
0.000109 0.000358 0.000000
0.000112 0.000369 0.000000
0.000110 0.000378 0.000000
0.000111 0.000389 0.000000
0.000112 0.000399 0.000000
0.000110 0.000413 0.000000
0.000116 0.000422 0.000000
0.000107 0.000427 0.000000
0.000112 0.000433 0.000000
0.000106 0.000450 0.000000
0.000115 0.000461 0.000000
0.000111 0.000471 0.000000
0.000116 0.000480 0.000000
0.000111 0.000493 0.000000
0.000119 0.000492 0.000000
0.000574 0.000805 0.000000
0.000542 0.000721 0.000000
0.000680 0.000882 0.000000
0.000704 0.000875 0.000000
0.000695 0.000869 0.000000
[...]
POINT_DATA 6231
SCALARS density float 1
LOOKUP_TABLE default
4410.619710
4424.661975
4420.665780
4423.104239
4427.161265
4427.405279
4422.770866
4421.916008
4428.467607
4430.058832
4426.543102
4430.046057
4426.902330
4430.458675
4432.193184
4441.832459
4423.750360
4430.842988
4412.618156
4424.285667
4411.354704
4424.469670
4426.028230
4433.019739
4441.132075
4418.376064
4400.302098
4432.240268
4450.231394
4453.348314
4419.028629
4411.887936
4417.989388
4430.498019
4426.526890
4421.457915
4422.617679
4426.591731
4433.379905
4427.238536
4428.728095
4423.091700
4435.992913
4425.686306
4437.443721
4415.877642
4424.094687
4409.687805
4447.090951
4461.748204
4459.799019
4416.595320
4408.924393
4411.077063
4432.687990
4503.885004
4393.227804
4400.889965
4426.004771
4409.707122
4460.716269
4447.490762
4416.319521
4433.081732
4426.506597
4415.408489
4433.980194
4426.793591
4423.730148
4434.443403
4411.598975
4435.934443
4427.224118
4430.268598
4418.576528
4439.565539
4412.084825
4482.216293
4399.803590
4450.350567
4351.648119
4449.694839
4421.001700
4422.603035
4425.917899
4412.822586
4516.769855
4326.424958
4366.114541
4419.290130
4415.132384
4414.975060
4400.508294
4427.204219
4429.624137
4414.661868
4436.825561
4435.171328
4428.738984
4428.486325
4423.542104
4433.299249
4437.721217
4408.755837
4441.000595
4415.749396
4448.172100
4399.279715
4435.430495
4385.654870
4458.668501
4369.743735
4555.808287
4370.174583
4431.612556
4456.686428
4427.321980
4488.936335
4339.516883
4491.067611
4465.913022
4396.227448
4489.514751
4444.981802
4431.556477
4423.689490
4435.288179
4444.379637
4407.523199
4433.072047
4434.214365
4431.418293
4426.834262
4424.977997
4417.248419
4453.935684
4404.823457
4442.473553
4419.264104
4445.495009
4390.559028
4510.113372
4306.994681
4420.041590
4383.932621
4429.922784
4423.345285
4422.478402
4427.801224
4478.971711
4436.023318
4404.785671
4492.254343
4434.582436
4416.431535
4424.154916
4424.873852
4431.580968
4411.435760
4448.024776
4455.676049
4407.310864
4437.947377
4413.368295
4440.169566
4430.261882
4420.054040
4421.387943
4453.516353
4375.315721
4481.035093
4364.021979
4473.615257
4358.299264
4536.849410
4382.701929
4446.640575
4428.222996
4453.489329
4409.639801
4438.731161
4445.486519
4389.078839
4390.386195
4411.117219
4417.187051
4426.375434
4440.945510
4426.411500
4440.908221
4422.635620
4411.155635
4435.351469
4447.857480
4410.590793
4436.798715
4420.478149
4444.996611
4419.360836
4426.537103
4422.528171
4462.037010
4404.013679
4518.343445
4381.116577
4480.354393
4432.805324
4417.665724
4397.089287
4414.641661
4460.705824
4464.511224
4427.991429
4401.504407
4425.056253
4421.118958
4426.381800
4429.774457
4429.043959
4404.933631
4443.701878
4419.024885
4444.535928
4446.250924
4406.800487
4431.060718
4449.073247
4390.210071
4426.184070
4407.955117
4443.613905
4432.895595
4453.412402
4443.471927
4447.836621
4448.751865
4412.639007
4389.644330
4530.944637
4451.304430
4440.081860
4449.305280
4433.798284
4429.460247
4465.079131
4435.238707
4452.512285
4411.576743
4422.504849
4432.045803
4437.274235
4414.413780
4415.926697
4421.739949
4401.651077
4444.792206
4431.480101
4427.492815
4418.059366
4440.823170
4411.679493
4439.320856
4471.461647
4389.875812
4455.544832
4450.273465
4366.039248
4465.809161
4414.638843
4433.719454
4416.459039
4420.755950
4437.177099
4374.288925
4463.688045
4422.639008
4401.639416
4438.512664
4435.101819
4429.228181
4423.603168
4431.873457
4417.405475
4435.840903
4441.509839
4414.209013
4451.456626
4402.659807
4443.529024
4453.180857
4388.338114
4426.486089
4461.530050
4417.301028
4389.610792
4432.528327
4435.290490
4431.715821
4426.095828
4415.753936
4422.401094
4434.276464
4425.215718
4474.271787
4400.084544
4391.668816
4446.285387
4440.461375
4430.333841
4417.133443
4430.630914
4425.362452
4427.185624
4439.224075
4413.853381
4422.523483
4438.651294
4407.006494
4442.292120
4430.935925
4426.189576
4452.371998
4423.624581
4381.940580
4458.811474
4446.558359
4420.122325
4460.115686
4411.402237
4438.159682
4418.685487
4424.664946
4432.657380
4421.940658
4435.157609
4464.871374
4372.188899
4398.740801
4476.807555
4446.928936
4422.789472
4425.352944
4443.099312
4430.029030
4426.209510
4436.043916
4429.362327
4434.508199
4429.263136
4442.982744
4419.205410
4420.971933
4447.705066
4397.918319
4442.905262
4426.302089
4426.059653
4469.966206
4388.424270
4458.205348
4401.523523
4409.245896
4430.787656
4433.567002
4436.270386
4400.606891
4427.620847
4471.888064
4455.467104
4409.533539
4425.001350
4451.661987
4433.687138
4427.625238
4418.270842
4429.919154
4431.043203
4421.508775
4411.596428
4446.292105
4398.089441
4447.158130
4437.847313
4408.173870
4452.407584
4434.231345
4429.298386
4375.717223
4435.750582
4391.683311
4436.760114
4432.934364
4394.410163
4441.707481
4419.334062
4428.535512
4450.739375
4446.959231
4413.045259
4336.760428
4464.940961
4387.760009
4416.271661
4436.627869
4434.808126
4436.269255
4448.162961
4410.526560
4437.157792
4437.280566
4420.831133
4431.898178
4417.895376
4421.634762
4416.885984
4431.742335
4442.789846
4405.096300
4447.842190
4393.968088
4458.217753
4490.727739
4418.975403
4435.792273
4434.499367
4412.551363
4416.649303
4426.203599
4431.568880
4439.953723
4477.632149
4478.260020
4485.348921
4451.947256
4436.072349
4437.176253
4424.473826
4410.937600
4441.243292
4423.663205
4420.586012
4419.227972
4449.715366
4406.577271
4430.194676
4447.257299
4410.764469
4420.112970
4433.061587
4382.589492
4416.814583
4505.349937
4572.690410
4385.725151
4374.788298
4417.057777
4417.548429
4456.432729
4460.468110
4386.077228
4450.368837
4410.206511
4404.952070
4404.186007
4448.124690
4436.417415
4432.314410
4437.438746
4445.227118
4431.152910
4414.039455
4429.598468
4455.214826
4405.537104
4425.802676
4439.412842
4421.200301
4445.110076
4429.827398
4443.094205
4415.461301
4487.430539
4356.989308
4332.911622
4485.035767
4394.343953
4413.474652
4436.889082
4425.482078
4492.900326
4443.408710
4408.475672
4438.425168
4393.178364
4425.029027
4412.381014
4433.964008
4427.522848
4430.950310
4410.910970
4438.891675
4431.050121
4417.034021
4417.701718
4440.373656
4446.875511
4415.096544
4413.633273
4447.160101
4382.088602
4441.933379
4444.085799
4395.175880
4487.743333
4477.430925
4421.606722
4406.843283
4424.991285
4446.041678
4419.733668
4373.280408
4455.662349
4452.467998
4409.894749
4400.705596
4432.749169
4428.144497
4433.199706
4431.135798
4439.698078
4435.428175
4442.095666
4418.041795
4435.072199
4437.365096
4414.585458
4399.592942
4460.660488
4433.149587
4409.482311
4466.403582
4412.066493
4431.099788
4383.691193
4490.866055
4351.774286
4367.226284
4423.648939
4426.853914
4441.811993
4439.824428
4396.909732
4438.828188
4414.794035
4449.044186
4457.459054
4435.957305
4433.485222
4435.514563
4427.098555
4422.241534
4431.592198
4427.045899
4433.438975
4437.986223
4403.403859
4439.327466
4461.441654
4408.038417
4421.675681
4425.056619
4428.380267
4408.664180
4453.347354
4352.277879
4463.199956
4402.495798
4444.202896
4390.763191
4431.708952
4430.433790
4442.958004
4457.855780
4406.058245
4467.158435
4455.104689
4412.424226
4413.932242
4424.057221
4430.892220
4423.675120
4439.545637
4434.910372
4427.825668
4441.464125
4423.333411
4437.219234
4416.017243
4403.369283
4436.554323
4444.101415
4413.828571
4438.285293
4412.698942
4455.713361
4386.482487
4455.129718
4431.898741
4577.313434
4373.761529
4486.540109
4433.215498
4437.393566
4430.877335
4395.991137
4453.289604
4400.623011
4420.026737
4433.167156
4404.264703
4428.618951
4433.790558
4428.645151
4418.724476
4431.692987
4423.967910
4424.340075
4438.182797
4417.183003
4436.940410
4430.131995
4405.905945
4420.008638
4439.207512
4410.508416
4453.426041
4456.930444
4465.019479
4364.598366
4379.013269
4519.271276
4407.805564
4427.679415
4456.432539
4438.275753
4380.587320
4417.228313
4442.909119
4466.055535
4406.027389
4399.836179
4430.406230
4434.057569
4424.629339
4435.397547
4439.713324
4427.084016
4429.537916
4410.254233
4417.926835
4444.511518
4398.506321
4452.661498
4460.043335
4417.954733
4398.222225
4444.497666
4418.612409
4447.725360
4400.422782
4457.582407
4412.923953
4446.802046
4412.618030
4429.197731
4436.534033
4425.624768
4403.660386
4451.208699
4363.648879
4417.192184
4450.565442
4428.864758
4427.853891
4430.375576
4433.738826
4408.236473
4428.627831
4422.860518
4451.008463
4422.776098
4424.616529
4422.159311
4401.706715
4473.866163
4392.979584
4403.180903
4461.765142
4378.983094
4405.221314
4431.246153
4447.515169
4421.589471
4427.152426
4438.543455
4433.893342
4414.328239
4438.399621
4478.943641
4377.671615
4483.032241
4359.817741
4433.916100
4429.824767
4432.647083
4428.671837
4426.977488
4432.227188
4447.673434
4413.978290
4403.739546
4400.047053
4444.010729
4410.752955
4436.481491
4445.400089
4437.821788
4432.784981
4407.908659
4435.317054
4424.060812
4402.738486
4440.320284
4421.025805
4419.664753
4472.793565
4396.348259
4433.232155
4471.778661
4445.219463
4367.565474
4456.272372
4423.055934
4454.244011
4426.899379
4428.491576
4424.863757
4428.348105
4414.898418
4414.180095
4431.030058
4436.997635
4436.356748
4426.385810
4404.313042
4437.458023
4403.801651
4417.013224
4406.801876
4428.811391
4404.396197
4460.008404
4438.681398
4489.489756
4410.146075
4406.652707
4453.203797
4392.862125
4436.350012
4440.605847
4450.794108
4439.321074
4456.496566
4432.148308
4449.628496
4429.131810
4431.021741
4427.129287
4433.362734
4430.216944
4434.033484
4418.041734
4397.843670
4415.060192
4426.274775
4441.611497
4440.760015
4427.819628
4428.610742
4436.865159
4444.297257
4392.156741
4462.332497
4362.799791
4410.262076
4432.435643
4405.318496
4462.531804
4440.234607
4416.225106
4405.350596
4421.962892
4423.355483
4394.554153
4420.448495
4413.150012
4422.890656
4432.713944
4423.128223
4422.311267
4410.088900
4430.336648
4418.408694
4444.129397
4444.486296
4405.751418
4408.931253
4433.833649
4418.654932
4427.281659
4413.901465
4425.933230
4436.122405
4468.401243
4409.600986
4447.403672
4423.099677
4530.322722
4414.009285
4367.160535
4445.490066
4450.663224
4420.286193
4434.239035
4495.632032
4417.186560
4449.558778
4426.949060
4435.427443
4421.867619
4437.007172
4442.328401
4424.452430
4427.993198
4412.263847
4395.441011
4444.772526
4431.586520
4437.299547
4400.124593
4442.804777
4405.171125
4463.262663
4388.428646
4479.038211
4403.255603
4427.955814
4420.664589
4417.751317
4423.300079
4429.808858
4447.705423
4430.151771
4424.477204
4437.280771
4400.679996
4379.385638
4433.664266
4429.302194
4427.504534
4425.491535
4421.427575
4418.261183
4435.425739
4429.530269
4432.197587
4439.907752
4432.198256
4393.551124
4439.471773
4429.200661
4456.156795
4428.618463
4426.901664
4404.432461
4450.733396
4433.729042
4430.898170
4409.945833
4406.411161
4419.409545
4425.056542
4491.083955
4405.667495
4421.338985
4438.209623
4375.914320
4436.251038
4410.889768
4424.929602
4423.071534
4435.828352
4436.196662
4438.668349
4429.006379
4411.865933
4430.473649
4401.976858
4418.719385
4453.589525
4418.461560
4432.222003
4391.673598
4451.446877
4429.739097
4404.539404
4357.927324
4387.767002
4461.654231
4445.722692
4407.498624
4403.902770
4399.336002
4461.764273
4399.987603
4420.780792
4460.569663
4457.217986
4428.878412
4461.990212
4434.807876
4433.288027
4424.116992
4416.385331
4418.821857
4433.809939
4440.516203
4418.713402
4437.883398
4417.514532
4432.529351
4405.659402
4445.203880
4431.942020
4423.687738
4430.074602
4416.923406
4488.669096
4458.278768
4436.374024
4445.145220
4521.462087
4430.983368
4420.612672
4445.155893
4433.687632
4420.446050
4435.470369
4418.728191
4420.091770
4410.237262
4425.054465
4427.556771
4431.387390
4443.044465
4442.015200
4425.569075
4425.291889
4408.143868
4449.589482
4419.571488
4416.764941
4432.421649
4427.819439
4416.149325
4424.240294
4443.625240
4391.113426
4439.863759
4389.770450
4377.941688
4431.128987
4434.733296
4459.026462
4435.993162
4487.652474
4381.349963
4411.417660
4415.289895
4458.028223
4355.521116
4423.107058
4429.395852
4430.930378
4433.603108
4406.055506
4431.087538
4435.754727
4423.783520
4444.303608
4394.901168
4434.013366
4442.376899
4421.775875
4416.343260
4453.002453
4428.477253
4442.204604
4409.198775
4381.648860
4469.832060
4463.944966
4447.815507
4399.879196
4403.434847
4452.937723
4409.290285
4431.476322
4376.126739
4469.398870
4428.169615
4453.696326
4422.272118
4440.271471
4430.337305
4425.089672
4441.076284
4437.503913
4420.997272
4406.711190
4421.906594
4428.998201
4441.705985
4390.859770
4450.759342
4416.259082
4431.574824
4383.584748
4436.385880
4451.107131
4462.051567
4344.972783
4471.591771
4459.216393
4461.625338
4490.048941
4428.995007
4463.620787
4448.815710
4449.291051
4437.650006
4393.558262
4390.864390
4437.480718
4431.821234
4426.073361
4423.355560
4418.760893
4412.696209
4449.850817
4398.628784
4440.058107
4403.494556
4426.959363
4419.367320
4444.177222
4399.159675
4449.762897
4417.273068
4433.915471
4379.339987
4447.537619
4311.254149
4499.775307
4525.298018
4422.866113
4406.445936
4521.769851
4361.057278
4420.083793
4384.428849
4469.448443
4354.401366
4449.375203
4442.959500
4428.057833
4435.650838
4433.369664
4426.313328
4436.210402
4428.824266
4428.129700
4425.155361
4440.645403
4413.545978
4411.873450
4403.962757
4436.749101
4422.618387
4403.329851
4453.413721
4394.911662
4450.782742
4456.097619
4504.822722
4429.455971
4422.857847
4375.022816
4423.876688
4401.313156
4436.306456
4440.607621
4469.978648
4442.538184
4375.987773
4452.123234
4420.893412
4429.735376
4422.670867
4426.779333
4410.951092
4429.499127
4430.062753
4413.804833
4397.216133
4443.657419
4432.007724
4432.829858
4413.784088
4435.633208
4439.984185
4430.220747
4439.225819
4444.415139
4438.888710
4473.962013
4622.576117
4463.026710
4521.223712
4425.647240
4433.740862
4459.920324
4385.407645
4424.229561
4465.513715
4429.325845
4415.311838
4424.195832
4436.338125
4424.082557
4436.373346
4423.466739
4422.670958
4430.110530
4452.926205
4428.155838
4421.614449
4404.559914
4405.928643
4434.757301
4431.168178
4391.679062
4426.532830
4409.706334
4410.881851
4421.349983
4424.165596
4396.816902
4424.424471
4445.287691
4408.618905
4460.443554
4467.686841
4360.344280
4381.879968
4497.085530
4472.111714
4412.781379
4424.037104
4431.237650
4401.883356
4428.312001
4426.107715
4437.774924
4397.965499
4446.046451
4411.423645
4446.193063
4423.271511
4443.482567
4428.170770
4440.431649
4438.604081
4443.840090
4404.173415
4431.527793
4460.302496
4457.304850
4422.289601
4469.007703
4379.591067
4450.820721
4433.171016
4447.186819
4481.236954
4433.837007
4373.447002
4416.542002
4395.529972
4421.674756
4423.254626
4436.593062
4443.993732
4416.085529
4420.710739
4422.005137
4427.195616
4407.301357
4434.715391
4411.699183
4425.455176
4417.277471
4414.221314
4421.287966
4430.862880
4438.633134
4351.393657
4437.499621
4488.028857
4407.129772
4461.500275
4419.254499
4412.964318
4448.571889
4461.345270
4396.767722
4523.760276
4369.215438
4459.018170
4408.006308
4422.108104
4431.126392
4414.363993
4414.660527
4436.969471
4422.197544
4406.538208
4434.933840
4431.721159
4425.723446
4407.964171
4410.540535
4401.349176
4432.002049
4423.870101
4439.511234
4401.960065
4406.972594
4439.047717
4430.783178
4454.216805
4418.445011
4450.683489
4382.442363
4455.796958
4433.674677
4464.032498
4409.702247
4365.050075
4385.410169
4420.031186
4422.760139
4426.609947
4429.667753
4431.831539
4433.219241
4408.021855
4455.500801
4420.681848
4436.906386
4412.540995
4415.243303
4463.862161
4404.039287
4415.123344
4415.357619
4424.395509
4458.278690
4398.624407
4430.381782
4450.051068
4412.198683
4425.629566
4477.113201
4405.366887
4380.753978
4478.573116
4430.005526
4399.844820
4460.525338
4473.199425
4416.623854
4424.861352
4420.716516
4416.770629
4423.766798
4417.951354
4446.591766
4400.847905
4433.748194
4417.861736
4428.936395
4390.012129
4440.085398
4438.179427
4432.322092
4401.389704
4452.867156
4394.432062
4428.697252
4385.454173
4425.026167
4413.971535
4455.809201
4448.402323
4480.815129
4453.372128
4422.919584
4403.026956
4391.934120
4461.767561
4357.639518
4418.510983
4421.481185
4420.636690
4437.595035
4429.095813
4411.186876
4440.795697
4425.190531
4420.886830
4423.216258
4427.329171
4413.466967
4422.347381
4419.607365
4414.942785
4424.267326
4410.597375
4401.182090
4449.288814
4428.779960
4496.634170
4430.267238
4454.272799
4510.760364
4443.057439
4466.635070
4461.608221
4467.616462
4460.097201
4473.843059
4416.480421
4400.101792
4419.367807
4425.776778
4411.467612
4417.858387
4439.928841
4398.192200
4433.724595
4424.587842
4434.060912
4413.436581
4425.569594
4427.884530
4400.325537
4429.921365
4431.242317
4385.953310
4421.055925
4401.580139
4357.603080
4443.280407
4437.088087
4429.914340
4438.994304
4457.724802
4449.759800
4418.526499
4445.596612
4428.057291
4447.202300
4444.295833
4414.212439
4421.244512
4427.014526
4435.509315
4412.916556
4438.216795
4428.159466
4413.086121
4409.436651
4421.465108
4449.223343
4420.217672
4441.681177
4439.938206
4438.938330
4449.156176
4437.331051
4380.189134
4434.852902
4478.489490
4452.240688
4413.657807
4414.432038
4437.168827
4451.591919
4452.569040
4447.479704
4449.671203
4374.441484
4456.783290
4379.429763
4451.709947
4419.991401
4426.896310
4419.486915
4426.351560
4404.586815
4443.570869
4436.471297
4432.944712
4397.046372
4446.417944
4422.261181
4422.677015
4395.182302
4411.098359
4407.549065
4458.550902
4403.858637
4496.094770
4385.533931
4333.578869
4378.012130
4459.688262
4485.129976
4425.034399
4430.622077
4460.998828
4452.299339
4340.066228
4438.128837
4420.986882
4382.677726
4428.297176
4433.715260
4424.025142
4430.156803
4430.603623
4415.529030
4412.116187
4417.246151
4401.825790
4442.164586
4405.581102
4442.542745
4450.659600
4443.582833
4431.887423
4428.909897
4459.364635
4398.513364
4383.235798
4549.958321
4382.159126
4410.447633
4480.756047
4432.612247
4425.078855
4452.800508
4428.036461
4470.209075
4482.266464
4395.388501
4426.158732
4434.870074
4426.270888
4430.587494
4417.510496
4408.062886
4422.867129
4412.147750
4424.546886
4418.212328
4418.317910
4435.897081
4410.649291
4392.880791
4438.583893
4425.941409
4406.870495
4439.489258
4463.273133
4409.151571
4433.521079
4470.527984
4555.199878
4486.041355
4475.933640
4478.526629
4440.468221
4443.113391
4464.809650
4477.182029
4437.964404
4469.575673
4430.217906
4421.266830
4429.407184
4434.211130
4419.593143
4440.571248
4429.697967
4413.532187
4432.257658
4397.677203
4439.452346
4421.947422
4437.495963
4444.194463
4430.305851
4412.455888
4409.501985
4408.013289
4460.336941
4432.432039
4538.658744
4390.240949
4479.191949
4489.306868
4472.676601
4452.945501
4425.237456
4416.678814
4382.183756
4364.929991
4353.935408
4424.787148
4435.824121
4418.922008
4412.452591
4432.085314
4409.169481
4442.605185
4411.896372
4441.594325
4437.137651
4422.744532
4405.979883
4408.742068
4439.129467
4415.751584
4441.641149
4440.801722
4374.016071
4425.404744
4448.328446
4461.696620
4372.425655
4466.125910
4446.613727
4464.876351
4462.598943
4408.064856
4436.876049
4470.729180
4410.971818
4433.498847
4425.553553
4417.098429
4433.872851
4413.602538
4429.327920
4413.138635
4431.379270
4412.235963
4416.415372
4423.382595
4409.157832
4423.620354
4382.541798
4432.579222
4433.278006
4413.449681
4394.961192
4454.207021
4396.715505
4392.045139
4484.887275
4489.010650
4471.047102
4440.702002
4411.510001
4454.489193
4435.148702
4442.905966
4440.417202
4404.715299
4416.152194
4430.879436
4428.717923
4427.668269
4431.687487
4426.537156
4427.261126
4426.525546
4407.697005
4438.960802
4412.012384
4441.334980
4413.149092
4444.351264
4445.496041
4419.072692
4423.710511
4423.181057
4466.888126
4541.325517
4376.614875
4332.893811
4467.097136
4478.595367
4457.273773
4448.064289
4482.229080
4452.257205
4435.183433
4418.808120
4413.971947
4381.753687
4423.810198
4426.952574
4415.228346
4409.343696
4429.322737
4425.022172
4428.560502
4424.418488
4415.574594
4423.296899
4417.127066
4432.869521
4405.501125
4420.746816
4405.568788
4416.194324
4438.543866
4436.960047