# vtk DataFile Version 2.0
mfree iwf
ASCII

DATASET UNSTRUCTURED_GRID
POINTS 6231 float
0.000000 0.000300 0.000000
0.000000 0.000310 0.000000
0.000000 0.000320 0.000000
0.000000 0.000330 0.000000
0.000000 0.000340 0.000000
0.000001 0.000350 0.000000
0.000001 0.000361 0.000000
0.000001 0.000371 0.000000
0.000001 0.000381 0.000000
0.000001 0.000391 0.000000
0.000001 0.000401 0.000000
0.000001 0.000411 0.000000
0.000001 0.000421 0.000000
0.000001 0.000431 0.000000
0.000002 0.000441 0.000000
0.000002 0.000451 0.000000
0.000002 0.000461 0.000000
0.000002 0.000471 0.000000
0.000003 0.000481 0.000000
0.000002 0.000492 0.000000
0.000006 0.000501 0.000000
0.000053 0.000514 0.000000
0.000053 0.000533 0.000000
0.000053 0.000536 0.000000
0.000053 0.000552 0.000000
0.000053 0.000557 0.000000
0.000053 0.000569 0.000000
0.000053 0.000577 0.000000
0.000053 0.000588 0.000000
0.000053 0.000602 0.000000
0.000053 0.000637 0.000000
0.000010 0.000300 0.000000
0.000010 0.000310 0.000000
0.000010 0.000320 0.000000
0.000010 0.000330 0.000000
0.000010 0.000340 0.000000
0.000010 0.000351 0.000000
0.000011 0.000360 0.000000
0.000011 0.000370 0.000000
0.000011 0.000381 0.000000
0.000011 0.000391 0.000000
0.000011 0.000401 0.000000
0.000011 0.000411 0.000000
0.000011 0.000421 0.000000
0.000011 0.000431 0.000000
0.000012 0.000441 0.000000
0.000012 0.000451 0.000000
0.000012 0.000460 0.000000
0.000012 0.000472 0.000000
0.000014 0.000480 0.000000
0.000010 0.000492 0.000000
0.000013 0.000498 0.000000
0.000060 0.000526 0.000000
0.000062 0.000540 0.000000
0.000062 0.000551 0.000000
0.000063 0.000565 0.000000
0.000062 0.000579 0.000000
0.000061 0.000591 0.000000
0.000060 0.000605 0.000000
0.000057 0.000615 0.000000
0.000056 0.000622 0.000000
0.000053 0.000629 0.000000
0.000020 0.000300 0.000000
0.000020 0.000310 0.000000
0.000020 0.000320 0.000000
0.000020 0.000330 0.000000
0.000021 0.000341 0.000000
0.000020 0.000350 0.000000
0.000021 0.000360 0.000000
0.000021 0.000371 0.000000
0.000021 0.000380 0.000000
0.000020 0.000390 0.000000
0.000022 0.000400 0.000000
0.000021 0.000411 0.000000
0.000022 0.000420 0.000000
0.000021 0.000431 0.000000
0.000022 0.000440 0.000000
0.000021 0.000451 0.000000
0.000023 0.000460 0.000000
0.000021 0.000471 0.000000
0.000023 0.000479 0.000000
0.000025 0.000495 0.000000
0.000020 0.000498 0.000000
0.000066 0.000528 0.000000
0.000073 0.000532 0.000000
0.000069 0.000545 0.000000
0.000071 0.000558 0.000000
0.000069 0.000568 0.000000
0.000070 0.000581 0.000000
0.000067 0.000595 0.000000
0.000065 0.000611 0.000000
0.000063 0.000624 0.000000
0.000065 0.000634 0.000000
0.000030 0.000300 0.000000
0.000030 0.000310 0.000000
0.000030 0.000321 0.000000
0.000030 0.000330 0.000000
0.000031 0.000340 0.000000
0.000030 0.000351 0.000000
0.000032 0.000361 0.000000
0.000030 0.000370 0.000000
0.000031 0.000380 0.000000
0.000031 0.000391 0.000000
0.000032 0.000400 0.000000
0.000030 0.000411 0.000000
0.000033 0.000420 0.000000
0.000030 0.000431 0.000000
0.000033 0.000440 0.000000
0.000030 0.000451 0.000000
0.000034 0.000459 0.000000
0.000031 0.000471 0.000000
0.000034 0.000480 0.000000
0.000030 0.000490 0.000000
0.000033 0.000498 0.000000
0.000052 0.000502 0.000000
0.000078 0.000542 0.000000
0.000076 0.000552 0.000000
0.000079 0.000568 0.000000
0.000077 0.000578 0.000000
0.000076 0.000592 0.000000
0.000076 0.000600 0.000000
0.000073 0.000611 0.000000
0.000076 0.000621 0.000000
0.000074 0.000633 0.000000
0.000040 0.000300 0.000000
0.000040 0.000310 0.000000
0.000040 0.000320 0.000000
0.000040 0.000330 0.000000
0.000040 0.000341 0.000000
0.000041 0.000350 0.000000
0.000041 0.000359 0.000000
0.000040 0.000370 0.000000
0.000042 0.000381 0.000000
0.000040 0.000390 0.000000
0.000042 0.000400 0.000000
0.000041 0.000411 0.000000
0.000042 0.000420 0.000000
0.000040 0.000431 0.000000
0.000043 0.000439 0.000000
0.000040 0.000451 0.000000
0.000043 0.000460 0.000000
0.000040 0.000472 0.000000
0.000044 0.000477 0.000000
0.000043 0.000492 0.000000
0.000042 0.000499 0.000000
0.000063 0.000510 0.000000
0.000085 0.000538 0.000000
0.000088 0.000551 0.000000
0.000085 0.000563 0.000000
0.000086 0.000576 0.000000
0.000084 0.000588 0.000000
0.000084 0.000604 0.000000
0.000084 0.000614 0.000000
0.000082 0.000624 0.000000
0.000083 0.000634 0.000000
0.000050 0.000300 0.000000
0.000050 0.000310 0.000000
0.000050 0.000320 0.000000
0.000051 0.000331 0.000000
0.000050 0.000340 0.000000
0.000051 0.000350 0.000000
0.000050 0.000361 0.000000
0.000051 0.000371 0.000000
0.000050 0.000379 0.000000
0.000051 0.000390 0.000000
0.000052 0.000401 0.000000
0.000051 0.000410 0.000000
0.000052 0.000420 0.000000
0.000052 0.000431 0.000000
0.000051 0.000441 0.000000
0.000052 0.000450 0.000000
0.000052 0.000459 0.000000
0.000053 0.000470 0.000000
0.000051 0.000482 0.000000
0.000056 0.000489 0.000000
0.000050 0.000500 0.000000
0.000068 0.000518 0.000000
0.000079 0.000525 0.000000
0.000092 0.000552 0.000000
0.000093 0.000566 0.000000
0.000093 0.000581 0.000000
0.000092 0.000591 0.000000
0.000092 0.000600 0.000000
0.000093 0.000611 0.000000
0.000093 0.000623 0.000000
0.000093 0.000634 0.000000
0.000060 0.000300 0.000000
0.000060 0.000310 0.000000
0.000060 0.000320 0.000000
0.000060 0.000330 0.000000
0.000060 0.000340 0.000000
0.000061 0.000351 0.000000
0.000060 0.000360 0.000000
0.000061 0.000370 0.000000
0.000060 0.000381 0.000000
0.000062 0.000391 0.000000
0.000060 0.000399 0.000000
0.000061 0.000410 0.000000
0.000062 0.000421 0.000000
0.000061 0.000430 0.000000
0.000062 0.000440 0.000000
0.000063 0.000450 0.000000
0.000061 0.000461 0.000000
0.000063 0.000470 0.000000
0.000060 0.000479 0.000000
0.000066 0.000489 0.000000
0.000064 0.000501 0.000000
0.000071 0.000509 0.000000
0.000091 0.000534 0.000000
0.000101 0.000554 0.000000
0.000100 0.000565 0.000000
0.000101 0.000576 0.000000
0.000102 0.000592 0.000000
0.000102 0.000603 0.000000
0.000102 0.000614 0.000000
0.000102 0.000623 0.000000
0.000103 0.000634 0.000000
0.000070 0.000300 0.000000
0.000070 0.000310 0.000000
0.000070 0.000320 0.000000
0.000070 0.000330 0.000000
0.000071 0.000341 0.000000
0.000070 0.000349 0.000000
0.000071 0.000360 0.000000
0.000071 0.000371 0.000000
0.000071 0.000380 0.000000
0.000071 0.000389 0.000000
0.000070 0.000401 0.000000
0.000072 0.000411 0.000000
0.000071 0.000419 0.000000
0.000072 0.000430 0.000000
0.000072 0.000441 0.000000
0.000071 0.000450 0.000000
0.000072 0.000459 0.000000
0.000073 0.000470 0.000000
0.000073 0.000480 0.000000
0.000071 0.000493 0.000000
0.000078 0.000497 0.000000
0.000079 0.000512 0.000000
0.000087 0.000526 0.000000
0.000098 0.000540 0.000000
0.000110 0.000566 0.000000
0.000108 0.000578 0.000000
0.000110 0.000589 0.000000
0.000110 0.000600 0.000000
0.000111 0.000612 0.000000
0.000112 0.000623 0.000000
0.000112 0.000633 0.000000
0.000080 0.000300 0.000000
0.000080 0.000310 0.000000
0.000080 0.000320 0.000000
0.000081 0.000330 0.000000
0.000080 0.000340 0.000000
0.000080 0.000350 0.000000
0.000081 0.000361 0.000000
0.000080 0.000369 0.000000
0.000081 0.000380 0.000000
0.000081 0.000391 0.000000
0.000081 0.000400 0.000000
0.000081 0.000409 0.000000
0.000081 0.000420 0.000000
0.000082 0.000431 0.000000
0.000081 0.000439 0.000000
0.000082 0.000450 0.000000
0.000082 0.000461 0.000000
0.000081 0.000471 0.000000
0.000083 0.000480 0.000000
0.000083 0.000488 0.000000
0.000085 0.000502 0.000000
0.000087 0.000513 0.000000
0.000094 0.000519 0.000000
0.000107 0.000549 0.000000
0.000114 0.000560 0.000000
0.000116 0.000577 0.000000
0.000118 0.000588 0.000000
0.000120 0.000601 0.000000
0.000120 0.000612 0.000000
0.000121 0.000622 0.000000
0.000122 0.000633 0.000000
0.000090 0.000300 0.000000
0.000090 0.000310 0.000000
0.000091 0.000320 0.000000
0.000090 0.000330 0.000000
0.000090 0.000340 0.000000
0.000091 0.000350 0.000000
0.000090 0.000360 0.000000
0.000091 0.000370 0.000000
0.000091 0.000381 0.000000
0.000090 0.000389 0.000000
0.000092 0.000399 0.000000
0.000091 0.000411 0.000000
0.000092 0.000421 0.000000
0.000091 0.000429 0.000000
0.000092 0.000440 0.000000
0.000092 0.000451 0.000000
0.000091 0.000459 0.000000
0.000093 0.000469 0.000000
0.000094 0.000481 0.000000
0.000091 0.000492 0.000000
0.000095 0.000500 0.000000
0.000097 0.000509 0.000000
0.000101 0.000528 0.000000
0.000106 0.000538 0.000000
0.000115 0.000548 0.000000
0.000123 0.000572 0.000000
0.000127 0.000586 0.000000
0.000126 0.000598 0.000000
0.000130 0.000610 0.000000
0.000130 0.000621 0.000000
0.000132 0.000632 0.000000
0.000100 0.000300 0.000000
0.000100 0.000310 0.000000
0.000100 0.000320 0.000000
0.000100 0.000330 0.000000
0.000101 0.000341 0.000000
0.000100 0.000350 0.000000
0.000101 0.000360 0.000000
0.000101 0.000370 0.000000
0.000100 0.000379 0.000000
0.000101 0.000390 0.000000
0.000101 0.000401 0.000000
0.000101 0.000410 0.000000
0.000102 0.000419 0.000000
0.000101 0.000431 0.000000
0.000102 0.000441 0.000000
0.000102 0.000449 0.000000
0.000102 0.000460 0.000000
0.000103 0.000471 0.000000
0.000101 0.000480 0.000000
0.000104 0.000489 0.000000
0.000105 0.000498 0.000000
0.000105 0.000513 0.000000
0.000107 0.000523 0.000000
0.000113 0.000531 0.000000
0.000122 0.000559 0.000000
0.000128 0.000571 0.000000
0.000133 0.000584 0.000000
0.000135 0.000598 0.000000
0.000137 0.000609 0.000000
0.000139 0.000620 0.000000
0.000141 0.000630 0.000000
0.000110 0.000300 0.000000
0.000110 0.000310 0.000000
0.000110 0.000320 0.000000
0.000111 0.000330 0.000000
0.000110 0.000339 0.000000
0.000110 0.000350 0.000000
0.000111 0.000361 0.000000
0.000110 0.000370 0.000000
0.000111 0.000380 0.000000
0.000111 0.000391 0.000000
0.000110 0.000399 0.000000
0.000112 0.000410 0.000000
0.000111 0.000421 0.000000
0.000111 0.000430 0.000000
0.000112 0.000439 0.000000
0.000112 0.000450 0.000000
0.000112 0.000461 0.000000
0.000112 0.000469 0.000000
0.000113 0.000480 0.000000
0.000113 0.000492 0.000000
0.000112 0.000503 0.000000
0.000115 0.000511 0.000000
0.000117 0.000520 0.000000
0.000120 0.000537 0.000000
0.000123 0.000548 0.000000
0.000130 0.000557 0.000000
[...]
POINT_DATA 6231
SCALARS density float 1
LOOKUP_TABLE default
4385.313240
4419.905689
4420.741288
4423.880484
4417.655989
4417.797296
4428.879186
4423.278657
4418.692651
4425.508214
4424.501845
4424.114652
4424.938106
4427.606379
4422.625940
4431.875063
4416.177003
4426.937260
4427.882935
4439.098036
4413.185994
4605.802546
4447.720389
4623.409679
4511.223366
4539.456460
4488.826744
4571.882030
4521.332913
4609.373355
4402.364811
4395.125372
4416.678514
4420.648001
4417.869041
4413.063128
4426.816318
4422.099777
4411.627577
4429.298599
4427.640324
4413.701751
4426.363414
4424.649701
4428.578926
4411.009523
4435.920052
4413.226073
4441.803263
4394.304561
4474.903127
4388.295449
4432.815860
4411.760498
4457.246242
4427.034465
4442.792266
4404.553848
4404.359271
4368.488727
4369.510711
4623.669814
4407.385966
4412.908905
4415.785525
4409.523555
4430.040746
4429.342033
4399.649415
4435.857461
4423.297602
4411.199543
4429.637206
4439.647833
4400.479555
4443.004840
4411.765770
4453.715190
4380.996910
4498.114077
4334.773968
4437.303510
4378.277305
4487.579824
4469.631858
4491.135731
4470.304191
4460.207398
4470.964752
4465.797229
4530.465922
4522.230700
4438.637042
4401.343501
4413.275014
4429.694526
4425.345382
4413.375673
4409.494139
4437.531013
4442.234839
4391.636782
4442.324990
4417.784924
4423.629971
4426.542662
4447.094978
4398.639964
4459.269337
4405.294019
4485.231641
4336.806425
4638.685636
4319.763826
4545.868249
4453.803649
4461.702200
4471.461447
4449.736000
4462.930403
4454.575633
4406.468157
4463.864171
4448.685590
4406.720271
4435.414977
4416.875770
4412.089959
4426.539203
4433.460975
4421.321172
4407.975917
4438.063320
4452.006324
4392.849598
4445.816524
4425.319377
4430.155294
4432.387432
4447.686895
4412.158377
4475.297057
4413.752584
4647.165619
4256.960272
4424.062848
4458.988484
4478.583032
4436.662548
4446.813347
4443.176278
4465.426217
4478.197712
4431.930145
4454.428959
4425.156574
4427.577534
4400.603721
4439.527055
4428.546758
4415.362669
4413.614482
4439.925195
4439.725208
4401.145980
4445.507928
4449.413228
4393.165287
4446.871602
4424.943747
4435.830322
4428.021236
4456.727775
4404.850599
4421.627036
4359.964328
4473.397016
4439.969376
4464.083623
4463.539709
4460.629666
4464.179061
4442.986461
4437.676479
4447.940448
4451.969945
4415.520093
4413.848812
4435.411704
4440.096683
4397.415807
4440.312455
4439.892627
4415.261174
4408.820042
4445.262116
4449.474187
4395.646629
4451.153669
4448.731806
4400.670379
4443.751962
4427.504516
4414.478492
4455.817628
4437.138049
4451.888480
4478.274815
4459.796937
4452.581998
4464.799109
4445.033924
4453.179737
4458.108195
4453.448110
4450.970319
4448.533645
4416.644389
4436.127321
4431.609727
4398.754286
4443.129985
4443.015109
4399.149902
4437.619371
4441.958169
4424.494882
4405.470034
4451.542669
4452.565532
4389.864664
4454.432743
4439.895891
4417.417998
4438.296124
4414.373478
4449.874803
4411.563624
4466.361578
4476.141527
4444.064159
4461.721519
4469.811911
4450.826309
4449.100860
4441.894268
4453.839773
4442.963860
4432.958681
4426.676650
4409.176262
4440.636747
4443.309273
4396.049744
4447.559845
4446.987311
4404.443537
4426.311063
4444.145805
4437.360052
4401.711784
4458.037479
4454.095304
4392.187382
4444.667295
4441.290144
4434.657184
4447.089935
4437.989010
4463.786998
4434.834074
4471.901069
4439.424150
4467.253597
4447.486209
4457.330063
4447.096507
4454.585990
4445.317668
4424.184603
4418.944401
4440.232403
4438.968304
4400.626446
4443.065170
4449.630335
4393.785351
4451.543180
4448.901783
4411.170954
4416.915276
4446.510800
4447.833558
4395.310506
4461.977669
4453.276436
4388.517372
4439.995308
4418.322799
4453.124927
4455.674188
4461.745372
4451.226586
4448.869455
4461.204467
4450.353116
4460.970298
4451.560934
4450.977469
4440.989091
4426.084168
4434.327792
4432.068668
4404.732389
4445.879392
4446.257311
4395.993446
4447.270203
4452.880907
4393.608505
4447.648017
4449.752979
4419.103259
4411.190648
4456.559235
4445.580981
4395.918851
4461.315791
4450.355577
4418.553085
4445.815818
4424.987975
4465.415166
4446.439207
4455.265725
4456.461652
4453.747202
4473.406307
4436.480242
4453.400212
4442.900809
4429.835577
4427.040738
4419.497798
4442.787253
4442.512310
4399.386841
4448.040133
4448.140371
4394.496251
4453.811551
4454.944993
4394.878962
4440.038218
4445.844157
4429.889561
4405.282467
4455.257555
4448.713590
4396.864692
4448.294546
4430.907357
4454.274684
4439.991662
4432.597484
4463.797646
4435.195343
4454.419062
4464.690577
4450.365386
4461.126318
4437.377033
4429.076955
4434.995634
4437.337062
4430.243911
4408.709173
4448.364998
4449.814133
4396.905223
4447.718590
4448.727612
4395.414691
4457.269767
4456.682619
4399.851601
4426.816515
4449.473768
4440.601090
4395.682793
4448.025706
4446.316633
4419.999267
4453.537702
4437.084186
4454.165171
4450.586869
4451.285159
4443.148005
4457.726568
4448.518086
4464.928264
4435.616390
4440.100291
4429.664977
4421.228234
4427.067479
4442.003018
4438.474947
4402.588389
4451.890742
4452.600936
4395.458606
4448.415339
4451.189204
4393.357702
4456.387262
4455.607183
4403.250504
4418.014640
4445.273273
4446.724604
4413.100366
4464.120900
4419.750794
4450.658916
4436.262386
4441.352094
4450.984770
4449.878242
4456.015044
4434.502104
4469.998419
4439.886989
4429.611148
4420.212459
4442.020991
4439.920336
4422.080703
4417.951113
4447.385894
4446.301317
4398.462226
4453.002512
4451.017546
4396.221258
4450.735567
4450.393962
4394.221840
4449.833600
4456.255577
4409.102625
4414.028914
4432.958031
4444.744220
4424.076093
4458.686950
4438.669089
4454.310173
4439.261563
4434.805130
4463.206089
4461.122527
4454.285826
4449.471349
4426.633823
4439.423262
4439.884683
4409.699632
4440.367197
4442.628919
4425.074200
4412.707448
4451.382297
4451.316858
4397.324604
4450.540459
4450.108739
4396.839369
4451.581760
4448.912206
4395.279908
4433.031878
4441.400447
4430.390023
4432.802369
4450.146465
4440.185631
4435.003524
4451.515842
4437.291058
4459.381502
4434.950595
4436.456996
4449.111632
4451.377130
4439.628949
4433.978944
4413.987018
4445.568932
4447.805613
4410.281914
4432.627334
4444.242105
4434.018404
4407.839853
4453.255055
4451.712408
4398.794596
4447.980370
4447.275081
4400.773848
4449.555495
4452.058239
4404.750818
4431.104448
4432.880678
4442.221054
4436.178785
4452.801832
4440.156558
4451.832886
4444.561588
4450.705783
4460.054316
4453.251172
4452.712479
4431.864462
4425.598114
4441.765229
4444.121601
4405.226516
4449.623568
4450.032032
4412.271124
4424.650085
4446.505117
4443.156336
4402.849395
4452.006467
4449.946022
4401.895692
4445.305139
4442.779706
4402.158152
4443.321259
4441.999179
4426.461715
4441.878388
4438.379670
4449.312932
4437.203604
4455.268523
4434.353740
4465.683145
4420.127587
4452.844387
4454.704126
4433.326084
4436.051133
4433.232650
4413.794953
4444.788378
4450.581120
4402.570288
4449.322348
4449.102468
4416.330156
4419.063544
4450.573557
4449.444172
4401.412470
4450.088856
4443.434955
4412.745078
4442.648438
4447.714138
4413.970572
4440.384143
4432.586088
4444.413020
4443.149963
4444.959758
4450.160722
4447.733927
4446.505237
4470.728772
4455.281471
4457.727428
4433.024685
4429.830134
4426.242454
4442.937582
4441.476657
4405.852626
4448.862862
4452.832222
4403.882967
4443.451886
4446.737650
4422.335399
4415.709251
4451.118979
4451.944197
4402.937823
4447.704196
4430.666752
4423.572713
4436.391437
4448.437236
4431.160172
4450.016422
4431.320096
4457.513833
4439.794189
4459.052787
4445.881923
4446.440285
4451.118420
4463.354182
4431.311908
4438.070087
4438.473360
4429.829285
4417.700490
4446.073950
4448.542394
4402.098370
4451.655290
4451.723149
4409.450785
4433.756553
4446.981317
4431.487435
4412.265141
4449.932425
4449.109273
4413.110499
4449.762632
4429.972161
4437.437070
4431.411118
4451.472282
4437.199267
4461.068285
4429.090484
4470.038082
4439.561608
4485.696640
4442.000698
4470.633532
4442.963667
4432.361407
4422.905361
4433.731346
4442.972645
4433.841475
4411.244554
4448.723717
4453.156537
4401.317561
4452.113275
4450.098259
4414.481813
4425.085657
4448.782972
4442.142674
4410.676887
4446.430018
4443.935263
4424.268824
4453.115019
4429.958254
4451.821484
4433.718766
4457.856865
4442.227794
4474.315334
4433.617423
4483.616283
4425.232295
4474.737580
4432.808435
4423.095262
4444.055873
4441.491056
4422.030919
4426.720987
4445.465565
4440.525151
4406.877589
4451.028619
4454.008664
4403.851241
4447.894499
4447.452279
4420.649188
4421.071197
4450.664473
4445.728032
4416.390911
4446.397031
4440.417833
4434.654580
4454.195244
4432.522357
4464.607162
4436.963206
4472.606097
4440.653797
4474.302048
4437.181196
4472.347460
4431.829948
4437.766722
4439.779003
4413.415647
4443.418010
4444.943269
4423.685072
4420.817767
4447.410755
4446.517972
4404.806691
4453.173022
4452.851307
4407.987559
4439.893342
4446.318161
4429.249056
4420.313628
4450.798839
4443.946528
4431.309862
4448.396962
4443.473859
4445.914664
4459.184038
4437.989885
4469.050371
4436.469287
4471.638746
4446.440658
4466.629153
4436.784615
4432.809313
4421.185242
4444.686613
4447.518943
4411.615706
4440.105809
4445.560066
4428.499893
4416.841145
4448.966949
4450.379601
4405.399737
4454.639875
4451.100747
4414.092083
4431.958135
4447.001989
4440.272172
4422.363195
4450.550272
4438.480248
4444.187224
4448.479841
4447.138273
4450.552490
4459.953900
4445.132245
4466.068896
4450.506756
4461.069371
4434.456086
4435.418852
4440.736096
4437.262541
4412.783594
4449.214126
4450.733933
4413.034041
4433.233291
4445.838360
4436.569524
4413.725114
4450.512692
4451.580457
4407.716907
4451.690928
4449.725751
4421.206644
4429.840233
4447.849389
4447.588952
4432.118628
4452.297901
4437.771766
4454.694440
4447.871764
4453.148666
4456.406888
4457.611841
4454.419269
4456.803971
4442.169342
4432.882137
4426.850861
4428.563176
4442.958201
4443.793502
4408.048862
4451.552579
4451.123020
4416.481542
4426.772186
4446.562348
4444.581153
4412.116490
4452.210386
4450.736734
4411.936489
4444.414505
4448.403388
4429.537666
4431.338367
4446.772340
4448.194676
4441.654280
4453.153729
4443.045854
4458.883367
4450.001379
4455.519554
4451.875630
4453.665503
4433.367586
4425.165028
4440.847716
4441.473705
4428.046046
4421.013927
4446.818621
4449.441843
4406.811964
4449.399387
4448.899319
4422.131549
4422.610146
4448.700523
4449.711917
4412.248970
4452.534660
4448.900677
4419.551521
4438.693436
4447.604941
4438.484769
4435.903708
4447.291819
4447.107528
4450.911206
4452.953936
4448.731280
4455.389913
4450.354775
4451.954015
4430.716430
4439.774827
4440.225363
4417.946831
4437.809833
4443.905124
4432.134746
4415.501170
4450.926537
4453.078101
4408.206571
4443.392045
4447.074079
4429.227375
4420.404180
4450.564909
4450.623033
4415.214413
4449.418850
4446.748600
4429.020496
4436.457081
4446.469259
4445.832502
4442.177671
4448.774536
4446.135025
4452.286417
4448.189949
4451.367762
4450.583108
4440.796134
4435.656791
4418.745039
4444.913222
4446.289531
4418.127918
4432.559393
4444.845685
4439.203159
4411.720498
4453.658053
4452.909532
4412.756346
4434.741000
4446.709570
4438.354443
4418.853370
4451.285409
4448.066423
4422.202419
4444.449798
4445.388399
4438.032184
4438.999332
4444.687685
4448.617776
4446.954494
4448.795211
4449.081859
4450.247500
4448.613071
4435.122303
4429.703844
4441.947839
4443.023676
4412.307858
4447.116689
4447.870265
4419.979582
4426.310136
4446.075913
4447.237253
4409.463533
4453.066934
4450.409721
4419.203286
4428.281480
4447.531767
4445.155813
4419.091625
4450.874478
4444.086806
4430.930638
4439.774504
4444.405884
4445.071795
4442.217716
4445.211230
4447.961524
4447.001183
4448.854679
4447.196099
4437.523280
4434.851712
4433.496393
4420.562050
4444.405282
4448.380774
4410.050944
4445.969674
4446.938522
4424.305907
4421.240367
4449.195971
4452.390323
4409.940287
4447.002235
4447.304437
4426.580253
4425.770964
4448.350863
4447.390172
4424.438375
4448.718378
4441.575086
4440.310302
4440.752495
4443.798814
4447.594964
4445.790052
4446.244072
4447.502557
4446.977700
4434.181213
4429.211922
4433.121977
4441.484423
4438.671906
4413.958431
4448.329577
4450.797291
4411.035195
4441.301247
4445.484138
4431.533196
4417.107738
4452.186537
4452.763546
4414.400732
4438.574604
4445.199977
4435.015870
4424.952552
4447.736758
4444.809232
4431.429602
4445.252866
4441.083419
4444.804420
4443.397349
4443.402761
4448.176910
4445.763272
4446.068284
4431.664493
4439.142266
4438.469088
4427.465246
4426.979658
4444.098215
4443.826885
4409.796744
4450.486439
4450.543565
4415.066014
4433.539587
4445.463656
4440.392285
4414.536824
4452.000564
4449.497926
4421.110800
4431.950692
4444.901323
4442.341894
4427.473632
4448.003193
4442.247916
4439.187506
4443.453275
4442.928118
4447.372284
4444.809378
4447.091091
4443.148931
4442.864379
4436.118372
4422.247632
4439.932031
4442.023312
4429.079168
4421.383762
4446.702598
4449.125179
4408.290522
4449.906008
4448.127925
4420.659544
4427.037197
4446.849093
4446.742829
4415.008857
4447.990540
4445.294608
4428.577739
4430.295197
4444.854306
4445.259654
4432.780672
4447.218678
4442.053272
4443.362868
4444.664162
4444.323238
4446.791096
4443.268829
4435.347549
4424.180787
4441.687726
4442.949763
4419.317055
4437.040079
4443.757041
4432.554086
4416.658155
4449.425989
4451.251148
4410.393301
4444.916299
4445.654757
4427.500181
4422.937190
4448.475120
4448.053966
4419.787063
4441.978374
4442.226259
4436.204010
4431.998819
4445.388802
4444.281472
4438.310980
4446.294266
4442.769771
4445.955128
4444.797445
4441.668701
4431.516876
4438.085689
4441.091139
4416.635038
4442.961203
4445.688334
4419.211517
4433.127331
4444.093538
4438.501634
4412.955593
4451.278870
4450.138700
4415.110379
4437.438573
4444.673844
4436.000607
4421.127357
4448.307434
4445.366730
4426.658783
4437.511665
4441.557046
4441.834200
4435.254031
4445.769080
4443.291332
4442.316456
4445.290591
4443.546015
4441.495002
4440.956039
4435.686171
4421.527578
4441.321540
4446.178270
4413.123172
4443.932364
4446.021881
4421.825136
4428.266346
4444.944748
4443.922903
4411.544044
4450.691740
4447.075649
4420.917499
4430.840843
4444.934652
4442.433035
4422.727845
4446.766736
4442.158892
4433.825309
4437.032593
4442.054475
4444.162749
4438.526121
4445.670367
4443.836907
4444.181972
4441.103448
4434.826009
4426.114785
4441.131840
4442.105651
4415.577651
4443.670027
4448.602098
4412.045172
4442.756062
4444.806681
4426.252774
4423.488660
4446.551741
4447.320698
4413.601229
4447.211843
4444.017418
4427.486866
4427.585373
4445.827696
4444.604518
4427.412942
4443.988963
4440.642788
4439.213062
4438.260365
4443.000867
4444.075255
4440.353236
4444.330759
4438.525333
4433.235853
4437.689539
4438.461587
4419.443040
4441.858668
4445.710911
4411.605272
4446.018860
4448.603400
4414.108762
4439.141508
4443.955724
4431.876684
4419.731534
4447.770976
4446.977624
4418.057669
4441.494562
4442.743328
4434.553230
4427.205387
4445.890333
4443.396735
4432.829503
4442.186968
4440.922380
4441.739073
4440.190763
4443.113067
4443.298912
4439.990821
4437.869935
4433.804879
4424.299187
4441.939487
4443.102859
4415.313427
4443.564883
4447.230985
4410.118090
4447.177384
4446.858875
4418.131312
4434.178850
4443.738133
4438.099131
4418.245627
4448.084280
4444.174947
4424.070573
4436.280018
4442.741096
4439.984707
4429.307235
4445.242345
4441.390928
4437.521531
4441.469599
4440.822497
4443.523723
4440.409416
4439.516190
4434.801456
4433.183162
4439.560444
4438.184185
4418.685394
4444.082571
4445.290936
4412.775398
4445.030519
4447.234036
4411.324877
4446.084131
4444.867407
4423.258294
4429.491614
4444.168870
4442.414604
4419.835229
4446.449895
4441.724889
4430.409739
4434.003803
4443.062506
4441.877846
4433.059314
4443.677806
4440.767197
4440.580673
4440.624413
4441.219089
4438.177069
4438.936693
4433.714716
4430.806036
4427.537805
4441.463770
4441.569287
4415.186842
4445.557099
4445.906365
4412.102098
4445.669652
4446.330512
4414.282108
4443.272737
4442.891279
4428.823035
4426.090874
4445.203266
4443.578410
4423.845384
4443.148956
4440.652788
4435.978688
4433.805970
4443.114459
4441.684396
4436.017492
4442.895878
4440.269256
4442.026127
4438.889891
4434.255669
4427.397692
4437.062812
4439.634605
4432.923578
4422.921912
4443.650327
4443.746991
4413.252566
4446.347499
4445.230136
4413.360546
4445.545435
4444.749020
4418.735273
4439.521301
4442.064988
4434.053209
4424.986960
4445.393588
4442.074485
4429.038240
4440.186058
4440.723876
4439.100640
4435.165762
4442.585680
4440.418010
4438.766424
4440.756940
4436.965234
4431.232245
4438.688166
4438.694303
4424.021789
4433.369389
4441.714077
4435.386790
4419.733824
4445.135900
4444.282910
4413.437779
4446.105457
4444.223443
4415.693535
4445.129507
4442.720727
4424.209105
4435.463124
4442.228691
4438.365092
4426.324769
4444.520561
4440.300352
4433.682809
4438.559558
4440.512040
4440.362756
4437.059574
4441.376341
4440.033402
4437.606675
4440.451622
4436.206865
4421.636092
4440.825726
4442.426718
4424.295192
4430.443960
4442.606541
4438.382006
4417.385007
4445.914649
4443.438874
4415.270950
4445.435063
4443.123086
4418.991640
4443.647033
4441.308509
4429.691337
4432.628830
4442.573748
4440.082729
4429.346617
4442.654879
4439.377800
4437.277732
4437.867857
4440.197410
4440.828427
4438.238741
4438.097422
4434.872556
4426.904373
4439.972388
4442.397655
4417.745439
4440.618515
4443.267621
4425.848999
4427.722203
4443.438903
4440.675915
4416.675587
4445.808228
4442.203986
4417.835627
4444.895885
4441.715849
4423.149987
4441.165937
4440.504022
4434.139340
4431.697559
4442.506172
4439.983028
4432.722619
4440.863853
4439.098370
4438.989974
4437.638834
4439.384762
4436.086649
4432.847505
4437.008070
4438.000357
4420.020044
4440.763750
4445.458196
4416.505814
4439.776411
4442.645075
4428.761718
4425.031607
4444.245120
4441.621323
4417.656662
4445.169777
4440.932624
4420.939009
4444.290571
4440.347109
4427.682370
4438.579256
4440.333903
4437.037033
4432.398645
4441.782384
4439.250380
4435.378424
4440.205532
4438.389196
4439.948824
4436.987602
4437.496063
4433.988259
4425.014502
4440.568281
4442.749313
4415.816905
4442.304412
4445.803986
4417.698864
4437.752015
4442.020959
4432.246547
4423.240154
4444.521663
4441.358372
4419.957595
4444.380062
4439.818258
4424.343859
4443.049482
4439.405876
4431.759401
4436.602231
4440.203748
4438.133908
4434.221545
4440.529748
4438.258241
4437.910333
4438.145101
4435.986083
4434.318871
4431.698293
4438.743454
4437.710232
4419.998806
4442.252708
4445.277096
4413.844522
4443.176753
4444.441816
4420.872335
4434.526689
4441.593960
4435.586177
4422.656091
4444.289628
4440.331940
4422.956262
4443.527850
4438.887125
4427.892394
4441.180967
4438.887341
4434.794045
4436.040955
4439.517458
4438.603447
4435.789118
4439.284505
4438.016875
4435.917438
4436.978569
4433.676716
4432.576401
4426.585635
4440.441591
4440.836180
4416.464237
4443.568494
4445.676413
4414.498127
4442.557907
4442.848631
4425.062272
4431.680683
4441.375815
4437.742099
4423.382644
4443.648901
4439.118158
4426.146205
4442.494972
4438.219868
4431.240740
4439.201512
4438.592469
4436.570617
4436.051138
4439.038157
4438.475680
4437.070004
4436.637852
4433.993490
4428.853186
4434.526725
4438.309444
4434.756381
4422.637571
4442.244331
4443.015073
4414.457886
4444.407414
4444.518486
4416.964934
4440.685426
4441.244738
4429.158929
4429.879697
4441.412817
4438.547829
4425.235489
4442.719571
4437.971329
4429.260613
4441.058471
4437.971710
4433.667564
4438.154745
4438.191026
4437.248157
4436.389524
4437.706323
4434.989409
4431.525896
4437.459191
4437.134053
4427.344976
4430.904531
4440.218693
4436.839917
4419.737598
4443.467729
4443.366888
4414.915401
4444.276993
4442.857036
4420.656909
4438.413208
4440.027434
4432.520771
4429.172882
4441.185798
4438.419226
4427.722689
4441.721732
4437.117686
4432.030244
4439.486660
4437.653711
4435.223392
4437.896784
4437.322590
4437.907981
4435.576198
4438.798050
4435.637109
4423.614042
4438.525756
4439.558177
4428.157228
4428.242765
4441.287541
4439.369295
4417.808504
4443.889321
4442.516557
4417.015431
4443.279558
4441.079802
4424.832026
4436.195142
4439.418271