# vtk DataFile Version 2.0
mfree iwf
ASCII

DATASET UNSTRUCTURED_GRID
POINTS 6231 float
0.000000 0.000300 0.000000
0.000000 0.000310 0.000000
0.000000 0.000320 0.000000
0.000000 0.000330 0.000000
0.000000 0.000340 0.000000
0.000000 0.000350 0.000000
0.000001 0.000360 0.000000
0.000001 0.000370 0.000000
0.000001 0.000380 0.000000
0.000001 0.000390 0.000000
0.000001 0.000400 0.000000
0.000001 0.000410 0.000000
0.000001 0.000420 0.000000
0.000001 0.000430 0.000000
0.000001 0.000440 0.000000
0.000002 0.000450 0.000000
0.000002 0.000460 0.000000
0.000002 0.000471 0.000000
0.000002 0.000480 0.000000
0.000002 0.000492 0.000000
0.000006 0.000501 0.000000
0.000642 0.000867 0.000000
0.000706 0.000916 0.000000
0.000657 0.000878 0.000000
0.000718 0.000923 0.000000
0.000739 0.000932 0.000000
0.000787 0.000945 0.000000
0.000795 0.000945 0.000000
0.000807 0.000941 0.000000
0.000821 0.000941 0.000000
0.000852 0.000946 0.000000
0.000010 0.000300 0.000000
0.000010 0.000310 0.000000
0.000010 0.000320 0.000000
0.000010 0.000330 0.000000
0.000010 0.000340 0.000000
0.000010 0.000350 0.000000
0.000010 0.000360 0.000000
0.000011 0.000370 0.000000
0.000011 0.000380 0.000000
0.000011 0.000390 0.000000
0.000011 0.000400 0.000000
0.000011 0.000410 0.000000
0.000011 0.000420 0.000000
0.000011 0.000430 0.000000
0.000011 0.000440 0.000000
0.000012 0.000450 0.000000
0.000012 0.000460 0.000000
0.000012 0.000472 0.000000
0.000013 0.000478 0.000000
0.000009 0.000492 0.000000
0.000013 0.000498 0.000000
0.000758 0.000932 0.000000
0.000773 0.000936 0.000000
0.000781 0.000938 0.000000
0.000787 0.000936 0.000000
0.000804 0.000933 0.000000
0.000815 0.000934 0.000000
0.000830 0.000932 0.000000
0.000841 0.000935 0.000000
0.000847 0.000934 0.000000
0.000849 0.000942 0.000000
0.000020 0.000300 0.000000
0.000020 0.000310 0.000000
0.000020 0.000320 0.000000
0.000020 0.000330 0.000000
0.000021 0.000340 0.000000
0.000020 0.000350 0.000000
0.000021 0.000360 0.000000
0.000021 0.000370 0.000000
0.000020 0.000380 0.000000
0.000021 0.000390 0.000000
0.000021 0.000400 0.000000
0.000022 0.000410 0.000000
0.000020 0.000420 0.000000
0.000022 0.000431 0.000000
0.000020 0.000439 0.000000
0.000024 0.000451 0.000000
0.000021 0.000460 0.000000
0.000022 0.000470 0.000000
0.000021 0.000481 0.000000
0.000024 0.000494 0.000000
0.000020 0.000497 0.000000
0.000728 0.000916 0.000000
0.000755 0.000927 0.000000
0.000765 0.000931 0.000000
0.000770 0.000929 0.000000
0.000781 0.000924 0.000000
0.000795 0.000930 0.000000
0.000822 0.000928 0.000000
0.000837 0.000930 0.000000
0.000846 0.000923 0.000000
0.000853 0.000921 0.000000
0.000030 0.000300 0.000000
0.000030 0.000310 0.000000
0.000030 0.000320 0.000000
0.000031 0.000330 0.000000
0.000030 0.000340 0.000000
0.000030 0.000349 0.000000
0.000030 0.000360 0.000000
0.000030 0.000370 0.000000
0.000031 0.000380 0.000000
0.000031 0.000390 0.000000
0.000031 0.000400 0.000000
0.000031 0.000411 0.000000
0.000031 0.000420 0.000000
0.000031 0.000430 0.000000
0.000032 0.000440 0.000000
0.000030 0.000450 0.000000
0.000032 0.000459 0.000000
0.000036 0.000473 0.000000
0.000029 0.000478 0.000000
0.000033 0.000488 0.000000
0.000032 0.000497 0.000000
0.000063 0.000500 0.000000
0.000748 0.000921 0.000000
0.000765 0.000915 0.000000
0.000792 0.000921 0.000000
0.000802 0.000915 0.000000
0.000807 0.000926 0.000000
0.000812 0.000920 0.000000
0.000823 0.000919 0.000000
0.000831 0.000919 0.000000
0.000854 0.000913 0.000000
0.000040 0.000300 0.000000
0.000040 0.000310 0.000000
0.000041 0.000320 0.000000
0.000040 0.000329 0.000000
0.000040 0.000340 0.000000
0.000041 0.000351 0.000000
0.000040 0.000360 0.000000
0.000041 0.000370 0.000000
0.000041 0.000380 0.000000
0.000040 0.000390 0.000000
0.000043 0.000399 0.000000
0.000040 0.000410 0.000000
0.000043 0.000420 0.000000
0.000040 0.000431 0.000000
0.000043 0.000439 0.000000
0.000043 0.000450 0.000000
0.000043 0.000460 0.000000
0.000036 0.000469 0.000000
0.000045 0.000477 0.000000
0.000043 0.000496 0.000000
0.000040 0.000498 0.000000
0.000570 0.000708 0.000000
0.000757 0.000913 0.000000
0.000776 0.000915 0.000000
0.000783 0.000911 0.000000
0.000790 0.000918 0.000000
0.000813 0.000911 0.000000
0.000835 0.000909 0.000000
0.000835 0.000899 0.000000
0.000843 0.000913 0.000000
0.000853 0.000904 0.000000
0.000050 0.000300 0.000000
0.000050 0.000310 0.000000
0.000050 0.000320 0.000000
0.000049 0.000331 0.000000
0.000052 0.000340 0.000000
0.000049 0.000348 0.000000
0.000051 0.000360 0.000000
0.000050 0.000371 0.000000
0.000052 0.000379 0.000000
0.000050 0.000390 0.000000
0.000052 0.000400 0.000000
0.000049 0.000411 0.000000
0.000053 0.000420 0.000000
0.000051 0.000430 0.000000
0.000053 0.000440 0.000000
0.000047 0.000451 0.000000
0.000054 0.000458 0.000000
0.000053 0.000469 0.000000
0.000056 0.000482 0.000000
0.000049 0.000488 0.000000
0.000050 0.000498 0.000000
0.000744 0.000927 0.000000
0.000703 0.000907 0.000000
0.000771 0.000909 0.000000
0.000788 0.000900 0.000000
0.000801 0.000904 0.000000
0.000818 0.000905 0.000000
0.000810 0.000898 0.000000
0.000826 0.000906 0.000000
0.000843 0.000901 0.000000
0.000851 0.000893 0.000000
0.000060 0.000300 0.000000
0.000060 0.000310 0.000000
0.000060 0.000321 0.000000
0.000061 0.000329 0.000000
0.000060 0.000340 0.000000
0.000059 0.000351 0.000000
0.000063 0.000360 0.000000
0.000059 0.000368 0.000000
0.000062 0.000381 0.000000
0.000060 0.000390 0.000000
0.000063 0.000400 0.000000
0.000060 0.000409 0.000000
0.000063 0.000418 0.000000
0.000058 0.000431 0.000000
0.000065 0.000439 0.000000
0.000061 0.000450 0.000000
0.000065 0.000460 0.000000
0.000055 0.000472 0.000000
0.000065 0.000475 0.000000
0.000068 0.000486 0.000000
0.000058 0.000496 0.000000
0.000734 0.000924 0.000000
0.000748 0.000912 0.000000
0.000766 0.000897 0.000000
0.000779 0.000899 0.000000
0.000796 0.000892 0.000000
0.000803 0.000887 0.000000
0.000831 0.000889 0.000000
0.000822 0.000895 0.000000
0.000840 0.000890 0.000000
0.000849 0.000884 0.000000
0.000070 0.000300 0.000000
0.000070 0.000310 0.000000
0.000070 0.000320 0.000000
0.000070 0.000331 0.000000
0.000070 0.000340 0.000000
0.000071 0.000349 0.000000
0.000070 0.000357 0.000000
0.000067 0.000373 0.000000
0.000076 0.000376 0.000000
0.000069 0.000390 0.000000
0.000073 0.000400 0.000000
0.000069 0.000412 0.000000
0.000074 0.000421 0.000000
0.000069 0.000430 0.000000
0.000075 0.000439 0.000000
0.000066 0.000451 0.000000
0.000077 0.000458 0.000000
0.000073 0.000470 0.000000
0.000076 0.000486 0.000000
0.000068 0.000495 0.000000
0.000076 0.000496 0.000000
0.000566 0.000682 0.000000
0.000737 0.000911 0.000000
0.000759 0.000903 0.000000
0.000781 0.000883 0.000000
0.000797 0.000902 0.000000
0.000812 0.000887 0.000000
0.000821 0.000888 0.000000
0.000819 0.000876 0.000000
0.000838 0.000880 0.000000
0.000847 0.000874 0.000000
0.000080 0.000300 0.000000
0.000080 0.000310 0.000000
0.000080 0.000320 0.000000
0.000080 0.000330 0.000000
0.000080 0.000340 0.000000
0.000082 0.000352 0.000000
0.000079 0.000362 0.000000
0.000081 0.000370 0.000000
0.000079 0.000383 0.000000
0.000079 0.000392 0.000000
0.000087 0.000396 0.000000
0.000079 0.000408 0.000000
0.000084 0.000417 0.000000
0.000079 0.000430 0.000000
0.000087 0.000444 0.000000
0.000077 0.000447 0.000000
0.000086 0.000463 0.000000
0.000074 0.000470 0.000000
0.000087 0.000473 0.000000
0.000085 0.000482 0.000000
0.000084 0.000495 0.000000
0.000725 0.000921 0.000000
0.000697 0.000911 0.000000
0.000766 0.000885 0.000000
0.000777 0.000895 0.000000
0.000791 0.000885 0.000000
0.000798 0.000876 0.000000
0.000807 0.000878 0.000000
0.000828 0.000876 0.000000
0.000836 0.000870 0.000000
0.000845 0.000864 0.000000
0.000090 0.000300 0.000000
0.000090 0.000310 0.000000
0.000089 0.000320 0.000000
0.000090 0.000329 0.000000
0.000091 0.000340 0.000000
0.000089 0.000348 0.000000
0.000091 0.000359 0.000000
0.000091 0.000368 0.000000
0.000091 0.000379 0.000000
0.000092 0.000388 0.000000
0.000085 0.000406 0.000000
0.000094 0.000409 0.000000
0.000089 0.000425 0.000000
0.000096 0.000425 0.000000
0.000088 0.000435 0.000000
0.000097 0.000455 0.000000
0.000086 0.000454 0.000000
0.000097 0.000471 0.000000
0.000106 0.000480 0.000000
0.000089 0.000494 0.000000
0.000094 0.000495 0.000000
0.000575 0.000725 0.000000
0.000732 0.000905 0.000000
0.000719 0.000910 0.000000
0.000750 0.000903 0.000000
0.000778 0.000873 0.000000
0.000803 0.000868 0.000000
0.000816 0.000870 0.000000
0.000824 0.000864 0.000000
0.000834 0.000861 0.000000
0.000843 0.000854 0.000000
0.000100 0.000300 0.000000
0.000100 0.000310 0.000000
0.000101 0.000319 0.000000
0.000099 0.000331 0.000000
0.000101 0.000341 0.000000
0.000100 0.000351 0.000000
0.000101 0.000361 0.000000
0.000099 0.000372 0.000000
0.000101 0.000380 0.000000
0.000100 0.000392 0.000000
0.000100 0.000399 0.000000
0.000104 0.000408 0.000000
0.000100 0.000418 0.000000
0.000099 0.000436 0.000000
0.000110 0.000443 0.000000
0.000097 0.000445 0.000000
0.000108 0.000460 0.000000
0.000098 0.000467 0.000000
0.000095 0.000481 0.000000
0.000106 0.000491 0.000000
0.000101 0.000494 0.000000
0.000661 0.000882 0.000000
0.000669 0.000889 0.000000
0.000692 0.000907 0.000000
0.000777 0.000883 0.000000
0.000791 0.000873 0.000000
0.000794 0.000863 0.000000
0.000815 0.000860 0.000000
0.000807 0.000855 0.000000
0.000830 0.000854 0.000000
0.000839 0.000845 0.000000
0.000110 0.000300 0.000000
0.000110 0.000310 0.000000
0.000109 0.000321 0.000000
0.000110 0.000329 0.000000
0.000110 0.000339 0.000000
0.000111 0.000350 0.000000
0.000109 0.000359 0.000000
0.000112 0.000368 0.000000
0.000110 0.000378 0.000000
0.000111 0.000390 0.000000
0.000112 0.000399 0.000000
0.000110 0.000414 0.000000
0.000116 0.000422 0.000000
0.000107 0.000427 0.000000
0.000112 0.000433 0.000000
0.000106 0.000450 0.000000
0.000115 0.000461 0.000000
0.000111 0.000471 0.000000
0.000116 0.000480 0.000000
0.000111 0.000493 0.000000
0.000119 0.000491 0.000000
0.000616 0.000828 0.000000
0.000580 0.000746 0.000000
0.000726 0.000900 0.000000
0.000750 0.000891 0.000000
0.000740 0.000887 0.000000
[...]
POINT_DATA 6231
SCALARS density float 1
LOOKUP_TABLE default
4412.414144
4424.979535
4421.360650
4424.522718
4427.311575
4426.549131
4423.483613
4423.141796
4428.592236
4429.816463
4426.127946
4430.001097
4427.426513
4429.905863
4432.099756
4442.347880
4423.920484
4431.157112
4412.660993
4424.359263
4411.423488
4423.439092
4428.467505
4432.879041
4442.340533
4419.814682
4398.431589
4430.480679
4450.554507
4453.634859
4417.931198
4414.002759
4419.487354
4429.777318
4426.482502
4420.120425
4423.731603
4427.844623
4432.131569
4427.872940
4429.644786
4424.595603
4436.126804
4425.916370
4439.178380
4415.009444
4424.041594
4409.289577
4447.056635
4461.549509
4459.573189
4416.336999
4408.901128
4413.626143
4433.980000
4505.495110
4394.363195
4400.622641
4425.871511
4405.573239
4458.378678
4444.890781
4418.090004
4431.630285
4427.851843
4417.353335
4435.624454
4429.370314
4421.984391
4433.438604
4414.295855
4433.750879
4427.663083
4430.715075
4415.861289
4439.936643
4412.808524
4482.964075
4400.085418
4450.539368
4352.162671
4450.067198
4420.973151
4420.952366
4426.442584
4413.118386
4510.075300
4326.959022
4367.038068
4416.760430
4418.263165
4420.150731
4399.178934
4426.748768
4429.993148
4417.313301
4435.688448
4434.805394
4425.639579
4428.215959
4429.815824
4430.967698
4439.067390
4408.571164
4442.654525
4419.911325
4446.759688
4399.120294
4434.883502
4386.620637
4457.761756
4369.631429
4554.540360
4370.423208
4430.753467
4456.280028
4431.850652
4485.035639
4342.265881
4485.902280
4467.288163
4405.618096
4483.169290
4441.440291
4432.916470
4427.114519
4432.873802
4444.475499
4409.923494
4439.745958
4434.943068
4428.317379
4422.650224
4430.023840
4417.652411
4449.147037
4403.694263
4442.536199
4422.148124
4444.690239
4391.931268
4509.373878
4309.212795
4419.975788
4383.888777
4441.022520
4422.052961
4429.027225
4422.118137
4479.965151
4430.523281
4404.819235
4491.353232
4438.888415
4414.687692
4425.943898
4424.787794
4428.571089
4418.431914
4443.128455
4448.726050
4406.751229
4440.611156
4423.738010
4431.797865
4430.857438
4425.640399
4424.262044
4451.570493
4374.811218
4480.918711
4366.186615
4471.037905
4357.547318
4536.780985
4382.897442
4445.694265
4426.697614
4449.950764
4410.827587
4443.487881
4442.708105
4386.729600
4398.996282
4413.949195
4416.724648
4427.135968
4437.823620
4433.268811
4435.478663
4426.774639
4416.176886
4443.034826
4444.961843
4402.468816
4441.363133
4417.144197
4439.278553
4416.667910
4429.497630
4425.018994
4459.750876
4403.619676
4517.242590
4384.775439
4480.783116
4432.439940
4418.049289
4398.242434
4415.549864
4460.500391
4466.430910
4428.996902
4402.577108
4424.331720
4421.971579
4426.261082
4428.771465
4426.856798
4410.566635
4432.796576
4430.168428
4434.291755
4430.473410
4400.573242
4441.363921
4448.377939
4393.988576
4430.058584
4414.576060
4440.143813
4428.455656
4452.527499
4441.710886
4447.307938
4446.559019
4412.560427
4391.215504
4474.150171
4449.653421
4436.170615
4452.117268
4434.106728
4432.135296
4455.627987
4440.142491
4452.922862
4410.047813
4425.380503
4430.625324
4439.648839
4417.263437
4418.202310
4427.651414
4415.411228
4440.463183
4431.745495
4423.834683
4414.886770
4437.594712
4406.018188
4440.548700
4465.803618
4392.622078
4455.408645
4449.207153
4368.046096
4463.928816
4415.309841
4435.389767
4417.178005
4416.273918
4439.170400
4370.253067
4469.704726
4418.274118
4399.873423
4437.460399
4436.399682
4432.461984
4424.355525
4428.458800
4419.747640
4429.498226
4439.495443
4425.604062
4430.290431
4411.458978
4447.792874
4449.644585
4401.052229
4430.923318
4452.237868
4420.611385
4387.220503
4435.505771
4434.685065
4428.789278
4425.753133
4414.889263
4425.216259
4434.852839
4422.120575
4474.189689
4400.057422
4394.075095
4449.209851
4434.235504
4431.612354
4417.145762
4429.016892
4425.469818
4429.748728
4439.277748
4424.313916
4418.171301
4432.178882
4427.272766
4435.862278
4424.097177
4426.582009
4444.954019
4427.200110
4384.723160
4449.167363
4449.052234
4419.677685
4460.038709
4414.843903
4438.315629
4418.882388
4423.745663
4430.736924
4421.084283
4437.995425
4458.249969
4370.265791
4398.362558
4473.792731
4451.188548
4420.412106
4425.254430
4442.465671
4432.298673
4421.745032
4430.578400
4433.597198
4437.134474
4433.361254
4426.228077
4426.901026
4427.047421
4442.255498
4395.158535
4445.244841
4433.474427
4431.688565
4464.217959
4392.599417
4460.557166
4402.243698
4409.296292
4430.866617
4428.794196
4438.088174
4402.502166
4432.854209
4470.815152
4451.488084
4412.044731
4425.102973
4453.217153
4435.703442
4428.361382
4416.163691
4438.543407
4429.193497
4422.087171
4410.828495
4439.475019
4413.442359
4443.936495
4406.652020
4426.094588
4451.008026
4432.879366
4431.803494
4375.778874
4446.188150
4393.044160
4435.573621
4432.396774
4393.673238
4439.532462
4421.892906
4429.326840
4449.937373
4452.046887
4417.840106
4339.976369
4461.349349
4389.704700
4416.490212
4434.816680
4436.191179
4434.748788
4443.826016
4410.827561
4437.864173
4435.606921
4432.796192
4424.230172
4430.222970
4442.476247
4404.247782
4428.240048
4449.329874
4410.837371
4440.638565
4396.574816
4450.488900
4497.503578
4418.662798
4436.901167
4434.762903
4414.774174
4418.487561
4436.408186
4426.313299
4443.239036
4474.937993
4475.587744
4486.124982
4451.784134
4434.143067
4435.490221
4426.447545
4411.692225
4441.640659
4422.905872
4422.106124
4415.739765
4437.095097
4405.691774
4427.102589
4443.863347
4421.609791
4401.878358
4448.316133
4377.930721
4419.429060
4511.460524
4571.298187
4384.238586
4374.813618
4410.141297
4418.923201
4451.656425
4453.187609
4383.508232
4454.403656
4407.504149
4402.291232
4406.749788
4448.627946
4435.647953
4431.715393
4436.087115
4443.913835
4428.522340
4415.147968
4425.311974
4453.353761
4423.013659
4410.621288
4449.869411
4425.072334
4439.625301
4426.288157
4453.877148
4413.437453
4484.686555
4354.021579
4329.218459
4487.178990
4395.851706
4413.344942
4438.832847
4424.591056
4489.285144
4441.613209
4411.235629
4440.965067
4390.346437
4425.506398
4412.384627
4433.595054
4429.970294
4428.686393
4414.242465
4434.696879
4430.115384
4417.162990
4402.233150
4407.239248
4452.635088
4424.352375
4402.016786
4445.366779
4385.348918
4434.989096
4452.223528
4394.451572
4490.616626
4479.729198
4422.232278
4405.539542
4424.444302
4445.930104
4420.891087
4382.161785
4448.973227
4447.347755
4416.776249
4400.359987
4432.755214
4428.929794
4431.202243
4428.477106
4438.132896
4434.716584
4440.555589
4420.115589
4429.912658
4442.032198
4426.963517
4413.770080
4454.558455
4428.130683
4414.054485
4465.671965
4419.251182
4433.293183
4385.179383
4489.890259
4350.085558
4368.919138
4425.255547
4425.333598
4439.108427
4439.268883
4401.501809
4438.335418
4419.100108
4447.520008
4463.168530
4437.447014
4437.601074
4432.967083
4429.044227
4425.253946
4431.924486
4424.594549
4435.295264
4429.689485
4406.526690
4440.459107
4450.554321
4407.314622
4434.899891
4415.079300
4422.094920
4404.950492
4462.587520
4352.182395
4462.890535
4402.131013
4444.783720
4391.002570
4431.563890
4430.850627
4444.657714
4459.769560
4406.119351
4462.308717
4454.354310
4411.901082
4413.162525
4422.617281
4431.309409
4427.090320
4430.846398
4432.633035
4431.146972
4438.317280
4425.364022
4443.871877
4413.253796
4416.029652
4427.411809
4438.002892
4425.845987
4430.949986
4425.732805
4449.095821
4382.840016
4456.548696
4430.120718
4574.421973
4375.353456
4481.609106
4429.041793
4437.569808
4431.111185
4397.467777
4453.535503
4399.844788
4411.889803
4428.570239
4412.920604
4428.643250
4434.251265
4429.508610
4428.518223
4423.322031
4429.883426
4416.610220
4437.146176
4424.901182
4423.545909
4440.688009
4414.457912
4411.925042
4441.249667
4409.698835
4459.015035
4454.457300
4469.110847
4364.479292
4381.174966
4527.462342
4407.944390
4426.101141
4456.207004
4430.239386
4382.989495
4420.153771
4441.930190
4466.359109
4407.706354
4404.884421
4432.320340
4432.768002
4425.505150
4431.562313
4432.874127
4438.282935
4425.530441
4417.151267
4423.926517
4433.258218
4405.350779
4446.292916
4448.647344
4432.370174
4386.480992
4449.897473
4415.081364
4449.013007
4396.990295
4459.829831
4413.352471
4446.357439
4414.512441
4424.625700
4434.476400
4426.080384
4403.759734
4450.855738
4354.269040
4421.421334
4448.311841
4429.057413
4424.725804
4433.459210
4436.057484
4418.111438
4414.652695
4433.320148
4446.357650
4410.017671
4435.389410
4420.387749
4411.454102
4468.341773
4393.726394
4406.126677
4462.564022
4372.837984
4400.262247
4431.084739
4447.488276
4419.395482
4427.480567
4437.242947
4443.639188
4413.880805
4438.810353
4476.443591
4374.531328
4477.415607
4364.898173
4423.982791
4428.484539
4433.936373
4431.895898
4419.965203
4430.819124
4449.204027
4416.208666
4406.986146
4415.646473
4444.602550
4397.205713
4436.362844
4434.036360
4433.780872
4437.277568
4403.853829
4443.564313
4424.565549
4404.823745
4439.248735
4420.675473
4419.758512
4474.574365
4406.283733
4434.081917
4466.878837
4442.530588
4364.976181
4443.351837
4410.168729
4457.661645
4427.969962
4427.580098
4420.810090
4434.218790
4421.513654
4413.497294
4424.898283
4436.665206
4434.908201
4422.555138
4416.205507
4444.671862
4410.811548
4412.941984
4407.935714
4428.861767
4400.650494
4460.686512
4440.580916
4491.614588
4410.779678
4406.891258
4453.228884
4398.460401
4434.724322
4438.172134
4462.366311
4417.947337
4461.519792
4435.242538
4442.083080
4429.624403
4433.517536
4427.490005
4436.471979
4421.345709
4431.800862
4426.239072
4403.451784
4410.249954
4433.508161
4445.428693
4426.828270
4419.431417
4427.173298
4446.411209
4451.785309
4395.875818
4463.527538
4362.482962
4410.160246
4432.909881
4405.011462
4452.150695
4445.264392
4418.984726
4412.987267
4416.255418
4426.367151
4399.543802
4423.603422
4414.415599
4424.441539
4433.599383
4420.647860
4425.057490
4415.781179
4437.331550
4404.163160
4442.885372
4449.965576
4403.992933
4404.102977
4448.586026
4420.222154
4427.883113
4410.731521
4423.259356
4428.672330
4463.828524
4412.620023
4446.811055
4419.493613
4561.933387
4421.899075
4368.380656
4433.155690
4448.487311
4416.765367
4445.560179
4498.014601
4422.643540
4449.092367
4427.628765
4433.651479
4422.620141
4440.963223
4434.909248
4424.403052
4430.395656
4424.230846
4388.209706
4446.773909
4438.275039
4430.137144
4403.411032
4449.202845
4417.153580
4463.002568
4390.342929
4475.017664
4404.939047
4427.253408
4420.768420
4418.309468
4426.984810
4430.114668
4430.080075
4443.671502
4418.989172
4434.504608
4392.636589
4379.528114
4437.541529
4426.512492
4430.853098
4426.688421
4421.270188
4421.262121
4439.618850
4427.673320
4424.037682
4440.180097
4438.933416
4389.389731
4441.381899
4436.138177
4445.165922
4417.722785
4436.835095
4413.791613
4454.043544
4431.790921
4432.530441
4413.730483
4423.408259
4421.388906
4426.448132
4498.100902
4400.721215
4412.205272
4445.670569
4384.453857
4435.698708
4409.955593
4424.839250
4427.893429
4429.191375
4435.412078
4445.281171
4416.351595
4419.914327
4433.795105
4402.794553
4416.638906
4449.091470
4431.193228
4416.804743
4399.752199
4445.137581
4431.439823
4392.172270
4364.344657
4392.466103
4458.249704
4443.993813
4410.439283
4402.824352
4404.230118
4448.446198
4407.946320
4434.094600
4462.683618
4464.700313
4428.996516
4460.893214
4435.402194
4434.339059
4424.896038
4423.846720
4412.736251
4443.911826
4439.461840
4417.560974
4435.749368
4418.354322
4434.860024
4399.241105
4452.832548
4432.228613
4413.083271
4440.032347
4416.055957
4491.055743
4452.456179
4437.297016
4446.125231
4467.635882
4449.464878
4422.272844
4448.481126
4434.147687
4425.271707
4429.821487
4419.238429
4418.719443
4412.418322
4426.816737
4426.383825
4433.024371
4441.005985
4436.486353
4433.306856
4410.400706
4419.297327
4451.066951
4413.066554
4420.459840
4440.900666
4429.281894
4417.542955
4429.648608
4446.336714
4382.597353
4443.810962
4392.232508
4371.027493
4433.299401
4433.631824
4480.047907
4397.058289
4481.591326
4379.151312
4427.612942
4424.290673
4456.481122
4361.384159
4422.211645
4430.113484
4430.344346
4433.725843
4410.564170
4434.359240
4427.712154
4437.336691
4441.811019
4388.022879
4444.137199
4429.330572
4424.332481
4407.910608
4459.722949
4421.499824
4451.012612
4405.580241
4382.779388
4475.026541
4467.715865
4448.969396
4399.397912
4409.487717
4441.788929
4442.520096
4426.013759
4376.279759
4464.724874
4430.309627
4452.085966
4423.220226
4438.924142
4431.409507
4427.097624
4435.901938
4432.912587
4426.216168
4402.242045
4416.547027
4435.240920
4442.700427
4393.184500
4446.904867
4432.477695
4431.401002
4393.303175
4433.606662
4447.976050
4457.465995
4346.042179
4473.293593
4458.955408
4491.673783
4499.581688
4422.978772
4457.528332
4456.075965
4445.463112
4426.811093
4391.349399
4398.484449
4436.805122
4433.392581
4424.493845
4422.996037
4421.762048
4414.455281
4444.712057
4408.812056
4447.909329
4406.763540
4413.335294
4426.727273
4433.473291
4403.260050
4442.768702
4413.566145
4438.579591
4379.066981
4443.069734
4311.342871
4504.687579
4500.042921
4424.038020
4406.277051
4525.889195
4369.815140
4437.371678
4387.127530
4467.865865
4360.999604
4437.983401
4441.527725
4429.577012
4434.302572
4436.091150
4426.888914
4434.902409
4426.150319
4432.921181
4407.177948
4429.857562
4427.612211
4424.071397
4406.757399
4424.822601
4432.726812
4402.477721
4456.342117
4397.139733
4456.528092
4457.485333
4505.563952
4431.787332
4424.892050
4358.640815
4414.426605
4428.932542
4431.522162
4448.521453
4466.701577
4442.712786
4380.407396
4452.916490
4422.994348
4428.060562
4426.771114
4420.790483
4420.560448
4415.059185
4429.865080
4429.204384
4418.709056
4420.259584
4421.171031
4439.751950
4407.599170
4431.555227
4440.889994
4431.328149
4433.002729
4441.818801
4440.712086
4467.350270
4663.006473
4380.568490
4551.361774
4419.857948
4423.979854
4468.012561
4386.243687
4420.276318
4453.581184
4435.369654
4414.274762
4425.712990
4430.210839
4428.553766
4437.644038
4425.450627
4418.384248
4436.396083
4441.254927
4420.324252
4451.010008
4423.596638
4412.872623
4433.155504
4439.031898
4395.266610
4428.644872
4409.137775
4413.258042
4424.564710
4429.227698
4401.134258
4425.952370
4504.619644
4415.253987
4432.732471
4462.160084
4362.707340
4374.332399
4494.292077
4466.065083
4413.680539
4424.966192
4431.003845
4410.302549
4422.271958
4439.042002
4448.376533
4394.653902
4445.408012
4413.778601
4431.644789
4409.432251
4439.700502
4427.377862
4429.106386
4426.554346
4431.020123
4412.537893
4424.002110
4459.761197
4453.575341
4423.081071
4491.722434
4377.506024
4404.269124
4422.252759
4451.022308
4478.063968
4439.447328
4377.127117
4416.192748
4397.814872
4424.939885
4429.593101
4427.300783
4451.293183
4416.867507
4410.292666
4414.319923
4448.732932
4400.214358
4440.351765
4427.920379
4427.809056
4421.419136
4432.844562
4415.196626
4430.109863
4439.338722
4357.951864
4433.281256
4485.897399
4411.600067
4497.728512
4449.136689
4417.681856
4462.775251
4452.183021
4419.259079
4529.389341
4370.914578
4460.034576
4415.129631
4422.733522
4434.139227
4413.645057
4421.887215
4429.002247
4440.648656
4414.252992
4424.178550
4448.033748
4431.206847
4397.653831
4407.241956
4406.736947
4430.131679
4423.502456
4436.289247
4407.043445
4402.893270
4440.097527
4439.923784
4440.862955
4449.376909
4442.756749
4451.412393
4465.141317
4424.746664
4463.630971
4414.336451
4361.312329
4388.624838
4419.616426
4420.661120
4431.926834
4430.818793
4424.908585
4437.582007
4404.754321
4445.244641
4416.387904
4441.611141
4411.627043
4409.910860
4464.953237
4413.472224
4422.280852
4416.615765
4430.290743
4464.827086
4394.658962
4434.309292
4447.589128
4417.765215
4421.217883
4442.771926
4382.706543
4369.934433
4478.557562
4406.101242
4403.043460
4458.578014
4468.129667
4416.294028
4427.729655
4418.391422
4419.893542
4423.335678
4413.357765
4455.055552
4397.119618
4438.634499
4412.654024
4424.718343
4394.435203
4434.087509
4425.993321
4436.960243
4401.896010
4447.417046
4398.446395
4421.751283
4378.443286
4426.132701
4418.329437
4460.771738
4406.294572
4469.879239
4433.162916
4430.402414
4407.749024
4388.033898
4463.337285
4356.151804
4420.396910
4422.747214
4422.354313
4436.440729
4434.622060
4401.262062
4454.711765
4407.309877
4435.524541
4422.269738
4432.627885
4419.618228
4424.297270
4429.165505
4414.990998
4428.722816
4407.991315
4416.037715
4451.123702
4435.509466
4502.915550
4431.704245
4436.205424
4428.939395
4425.034649
4476.062563
4478.336227
4465.102898
4468.308059
4458.517270
4412.768200
4402.261011
4424.764884
4428.604514
4414.808041
4420.184731
4441.089313
4396.246667
4431.284487
4422.896221
4425.895087
4415.421719
4426.960403
4435.237177
4396.610291
4429.046284
4435.601838
4385.505068
4415.665349
4396.046087
4359.227500
4458.668252
4433.361264
4429.970303
4405.853746
4472.388589
4438.702873
4397.082754
4451.838253
4419.957564
4451.931204
4436.766208
4406.983737
4418.358615
4422.709724
4433.773914
4414.476909
4444.936609
4425.955709
4427.886498
4413.901168
4421.243759
4450.398213
4421.433342
4433.551115
4443.889336
4442.501689
4456.636281
4443.586973
4380.756036
4448.375054
4467.627346
4455.798227
4412.161553
4420.510979
4441.374308
4431.090780
4443.255639
4459.500656
4435.895136
4382.264369
4443.916738
4379.023319
4462.103414
4421.201919
4432.883707
4434.325531
4420.373564
4397.293293
4456.089955
4424.829771
4432.347094
4404.078660
4439.655820
4428.372042
4429.458130
4394.924039
4411.033394
4404.543609
4457.046187
4424.065751
4510.060392
4402.451062
4318.533005
4387.980692
4466.078166
4475.441983
4426.370917
4443.916453
4453.252967
4458.709684
4363.293418
4430.927200
4425.169500
4373.823626
4439.354669
4428.917195
4402.753723
4431.278423
4442.111575
4407.735923
4421.908022
4431.597208
4403.814790
4431.068176
4410.097469
4445.457054
4445.738269
4455.193712
4421.564420
4412.148818
4469.998392
4384.601860
4415.932255
4536.403206
4395.544815
4414.979009
4461.679028
4434.801144
4456.443592
4447.191090
4416.867175
4463.627359
4472.411716
4394.029067
4426.092474
4426.648218
4424.641237
4448.101616
4433.807478
4392.299683
4406.371882
4415.244086
4417.415303
4403.383784
4420.236866
4414.020420
4408.706431
4383.467289
4442.705203
4432.880256
4421.244638
4419.445500
4448.017371
4408.015329
4437.467976
4466.901155
4489.576522
4484.086883
4439.128917
4498.572524
4428.442234
4435.657697
4451.226099
4469.674891
4441.642052
4483.120817
4425.938273
4430.180831
4425.207820
4414.139365
4443.226825
4450.996280
4426.590878
4434.949282
4425.972242
4419.210204
4449.152994
4438.056662
4442.593287
4425.247629
4393.325436
4419.172254
4425.845035
4433.340364
4444.513693
4439.557112
4664.212013
4389.135803
4462.773332
4478.476391
4468.222379
4455.673049
4417.817938
4385.878826
4394.528790
4350.779543
4364.537904
4429.127715
4440.578755
4407.012655
4434.093717
4427.619505
4396.341723
4444.587186
4411.747118
4433.876889
4437.105088
4415.651331
4424.950091
4411.591685
4450.045013
4418.464299
4435.761398
4381.508178
4412.266592
4443.965634
4379.645784
4461.931827
4430.104128
4467.395456
4434.001730
4438.512985
4443.826182
4419.303676
4412.773136
4462.939489
4420.709789
4444.464722
4426.368783
4416.738678
4434.250369
4426.168296
4405.534809
4439.409903
4414.808306
4406.342768
4412.664972
4433.954147
4406.673787
4442.511926
4395.672428
4445.620577
4417.320523
4444.519139
4389.443888
4438.936631
4437.840682
4418.661848
4413.824069
4461.641972
4453.310981
4489.831090
4399.251654
4432.225372
4441.975717
4426.076120
4446.926649
4412.500798
4421.256435
4433.333865
4425.893938
4423.004505
4446.396080
4438.722498
4384.331770
4450.753653
4424.391141
4431.717628
4409.879575
4426.907657
4419.560359
4434.892649
4436.332551
4428.456251
4444.573643
4417.794767
4461.554542
4491.724936
4363.923013
4413.113137
4486.326364
4472.559728
4463.166075
4388.292445
4489.523727
4449.972307
4428.649595
4443.528958
4421.080575
4384.916632
4417.624523
4428.327544
4416.793695
4395.477074
4428.643486
4427.031346
4451.540113
4440.652774
4391.725224
4441.549028
4416.106657
4446.148282
4398.850057
4423.503280
4408.499791
4395.362004
4414.094077
4432.033139