# vtk DataFile Version 2.0
mfree iwf
ASCII

DATASET UNSTRUCTURED_GRID
POINTS 6231 float
0.000000 0.000300 0.000000
0.000000 0.000310 0.000000
0.000000 0.000320 0.000000
0.000000 0.000330 0.000000
0.000000 0.000340 0.000000
0.000000 0.000350 0.000000
0.000000 0.000360 0.000000
0.000001 0.000370 0.000000
0.000001 0.000380 0.000000
0.000001 0.000390 0.000000
0.000001 0.000400 0.000000
0.000001 0.000410 0.000000
0.000001 0.000420 0.000000
0.000001 0.000430 0.000000
0.000001 0.000440 0.000000
0.000002 0.000450 0.000000
0.000002 0.000460 0.000000
0.000002 0.000471 0.000000
0.000002 0.000480 0.000000
0.000002 0.000492 0.000000
0.000006 0.000501 0.000000
0.000754 0.000928 0.000000
0.000823 0.000971 0.000000
0.000770 0.000938 0.000000
0.000835 0.000978 0.000000
0.000856 0.000985 0.000000
0.000905 0.000993 0.000000
0.000913 0.000992 0.000000
0.000925 0.000988 0.000000
0.000938 0.000987 0.000000
0.000969 0.000990 0.000000
0.000010 0.000300 0.000000
0.000010 0.000310 0.000000
0.000010 0.000320 0.000000
0.000010 0.000330 0.000000
0.000010 0.000340 0.000000
0.000010 0.000350 0.000000
0.000010 0.000360 0.000000
0.000011 0.000370 0.000000
0.000011 0.000380 0.000000
0.000011 0.000390 0.000000
0.000011 0.000400 0.000000
0.000011 0.000410 0.000000
0.000011 0.000420 0.000000
0.000011 0.000430 0.000000
0.000011 0.000440 0.000000
0.000011 0.000450 0.000000
0.000012 0.000460 0.000000
0.000012 0.000472 0.000000
0.000013 0.000478 0.000000
0.000009 0.000492 0.000000
0.000013 0.000498 0.000000
0.000876 0.000983 0.000000
0.000890 0.000985 0.000000
0.000898 0.000987 0.000000
0.000905 0.000985 0.000000
0.000921 0.000980 0.000000
0.000933 0.000980 0.000000
0.000947 0.000977 0.000000
0.000958 0.000979 0.000000
0.000964 0.000977 0.000000
0.000966 0.000986 0.000000
0.000020 0.000300 0.000000
0.000020 0.000310 0.000000
0.000020 0.000320 0.000000
0.000020 0.000330 0.000000
0.000021 0.000340 0.000000
0.000020 0.000350 0.000000
0.000021 0.000360 0.000000
0.000021 0.000370 0.000000
0.000020 0.000380 0.000000
0.000021 0.000390 0.000000
0.000021 0.000400 0.000000
0.000022 0.000410 0.000000
0.000021 0.000420 0.000000
0.000022 0.000431 0.000000
0.000021 0.000440 0.000000
0.000023 0.000451 0.000000
0.000021 0.000460 0.000000
0.000022 0.000470 0.000000
0.000021 0.000481 0.000000
0.000024 0.000494 0.000000
0.000020 0.000497 0.000000
0.000844 0.000969 0.000000
0.000872 0.000978 0.000000
0.000882 0.000981 0.000000
0.000887 0.000979 0.000000
0.000897 0.000973 0.000000
0.000912 0.000977 0.000000
0.000939 0.000973 0.000000
0.000954 0.000974 0.000000
0.000962 0.000966 0.000000
0.000969 0.000964 0.000000
0.000030 0.000300 0.000000
0.000030 0.000310 0.000000
0.000030 0.000320 0.000000
0.000030 0.000330 0.000000
0.000030 0.000340 0.000000
0.000030 0.000350 0.000000
0.000031 0.000360 0.000000
0.000030 0.000370 0.000000
0.000031 0.000380 0.000000
0.000030 0.000390 0.000000
0.000031 0.000400 0.000000
0.000031 0.000411 0.000000
0.000031 0.000420 0.000000
0.000031 0.000430 0.000000
0.000031 0.000440 0.000000
0.000031 0.000450 0.000000
0.000031 0.000459 0.000000
0.000036 0.000473 0.000000
0.000029 0.000478 0.000000
0.000033 0.000488 0.000000
0.000032 0.000497 0.000000
0.000063 0.000500 0.000000
0.000864 0.000973 0.000000
0.000881 0.000964 0.000000
0.000908 0.000969 0.000000
0.000918 0.000962 0.000000
0.000923 0.000973 0.000000
0.000928 0.000966 0.000000
0.000939 0.000964 0.000000
0.000946 0.000964 0.000000
0.000969 0.000956 0.000000
0.000040 0.000300 0.000000
0.000040 0.000310 0.000000
0.000040 0.000320 0.000000
0.000040 0.000330 0.000000
0.000040 0.000341 0.000000
0.000041 0.000350 0.000000
0.000041 0.000359 0.000000
0.000040 0.000370 0.000000
0.000041 0.000380 0.000000
0.000040 0.000390 0.000000
0.000042 0.000399 0.000000
0.000041 0.000410 0.000000
0.000042 0.000420 0.000000
0.000040 0.000431 0.000000
0.000042 0.000439 0.000000
0.000043 0.000450 0.000000
0.000042 0.000460 0.000000
0.000037 0.000469 0.000000
0.000045 0.000477 0.000000
0.000043 0.000496 0.000000
0.000040 0.000498 0.000000
0.000668 0.000776 0.000000
0.000873 0.000965 0.000000
0.000891 0.000965 0.000000
0.000899 0.000959 0.000000
0.000907 0.000967 0.000000
0.000928 0.000957 0.000000
0.000950 0.000953 0.000000
0.000949 0.000944 0.000000
0.000959 0.000957 0.000000
0.000967 0.000947 0.000000
0.000050 0.000300 0.000000
0.000050 0.000310 0.000000
0.000050 0.000319 0.000000
0.000050 0.000330 0.000000
0.000051 0.000339 0.000000
0.000050 0.000349 0.000000
0.000050 0.000361 0.000000
0.000052 0.000371 0.000000
0.000050 0.000380 0.000000
0.000051 0.000390 0.000000
0.000051 0.000400 0.000000
0.000050 0.000411 0.000000
0.000052 0.000420 0.000000
0.000051 0.000430 0.000000
0.000053 0.000440 0.000000
0.000048 0.000451 0.000000
0.000054 0.000458 0.000000
0.000053 0.000470 0.000000
0.000056 0.000482 0.000000
0.000049 0.000488 0.000000
0.000050 0.000498 0.000000
0.000861 0.000979 0.000000
0.000818 0.000962 0.000000
0.000887 0.000959 0.000000
0.000902 0.000948 0.000000
0.000916 0.000952 0.000000
0.000933 0.000950 0.000000
0.000924 0.000945 0.000000
0.000941 0.000952 0.000000
0.000957 0.000945 0.000000
0.000964 0.000936 0.000000
0.000060 0.000300 0.000000
0.000060 0.000310 0.000000
0.000059 0.000320 0.000000
0.000061 0.000330 0.000000
0.000060 0.000339 0.000000
0.000060 0.000351 0.000000
0.000060 0.000359 0.000000
0.000060 0.000368 0.000000
0.000061 0.000380 0.000000
0.000060 0.000390 0.000000
0.000062 0.000400 0.000000
0.000061 0.000409 0.000000
0.000063 0.000418 0.000000
0.000058 0.000431 0.000000
0.000065 0.000439 0.000000
0.000061 0.000450 0.000000
0.000065 0.000460 0.000000
0.000055 0.000472 0.000000
0.000065 0.000475 0.000000
0.000068 0.000486 0.000000
0.000058 0.000496 0.000000
0.000851 0.000977 0.000000
0.000864 0.000963 0.000000
0.000881 0.000947 0.000000
0.000894 0.000949 0.000000
0.000910 0.000940 0.000000
0.000916 0.000934 0.000000
0.000944 0.000934 0.000000
0.000935 0.000941 0.000000
0.000954 0.000934 0.000000
0.000962 0.000927 0.000000
0.000070 0.000300 0.000000
0.000070 0.000310 0.000000
0.000070 0.000319 0.000000
0.000070 0.000329 0.000000
0.000071 0.000340 0.000000
0.000069 0.000350 0.000000
0.000073 0.000359 0.000000
0.000069 0.000374 0.000000
0.000081 0.000376 0.000000
0.000070 0.000390 0.000000
0.000073 0.000400 0.000000
0.000069 0.000412 0.000000
0.000074 0.000421 0.000000
0.000069 0.000430 0.000000
0.000075 0.000438 0.000000
0.000067 0.000451 0.000000
0.000077 0.000459 0.000000
0.000073 0.000470 0.000000
0.000076 0.000485 0.000000
0.000068 0.000495 0.000000
0.000076 0.000496 0.000000
0.000662 0.000754 0.000000
0.000852 0.000964 0.000000
0.000874 0.000954 0.000000
0.000894 0.000931 0.000000
0.000911 0.000950 0.000000
0.000925 0.000934 0.000000
0.000935 0.000933 0.000000
0.000930 0.000923 0.000000
0.000951 0.000924 0.000000
0.000959 0.000917 0.000000
0.000080 0.000300 0.000000
0.000080 0.000310 0.000000
0.000080 0.000320 0.000000
0.000079 0.000331 0.000000
0.000082 0.000340 0.000000
0.000080 0.000350 0.000000
0.000082 0.000363 0.000000
0.000073 0.000369 0.000000
0.000076 0.000383 0.000000
0.000079 0.000392 0.000000
0.000089 0.000396 0.000000
0.000079 0.000409 0.000000
0.000085 0.000417 0.000000
0.000078 0.000430 0.000000
0.000087 0.000445 0.000000
0.000077 0.000448 0.000000
0.000086 0.000463 0.000000
0.000074 0.000470 0.000000
0.000087 0.000473 0.000000
0.000085 0.000482 0.000000
0.000084 0.000495 0.000000
0.000841 0.000974 0.000000
0.000813 0.000967 0.000000
0.000879 0.000935 0.000000
0.000890 0.000944 0.000000
0.000903 0.000934 0.000000
0.000910 0.000924 0.000000
0.000920 0.000924 0.000000
0.000941 0.000921 0.000000
0.000948 0.000915 0.000000
0.000956 0.000907 0.000000
0.000090 0.000300 0.000000
0.000090 0.000310 0.000000
0.000090 0.000320 0.000000
0.000090 0.000329 0.000000
0.000091 0.000339 0.000000
0.000089 0.000350 0.000000
0.000091 0.000359 0.000000
0.000089 0.000369 0.000000
0.000092 0.000379 0.000000
0.000090 0.000387 0.000000
0.000085 0.000404 0.000000
0.000093 0.000410 0.000000
0.000088 0.000425 0.000000
0.000096 0.000425 0.000000
0.000089 0.000435 0.000000
0.000097 0.000455 0.000000
0.000087 0.000453 0.000000
0.000097 0.000471 0.000000
0.000106 0.000480 0.000000
0.000089 0.000494 0.000000
0.000094 0.000495 0.000000
0.000674 0.000793 0.000000
0.000847 0.000958 0.000000
0.000835 0.000964 0.000000
0.000865 0.000954 0.000000
0.000889 0.000923 0.000000
0.000915 0.000915 0.000000
0.000929 0.000915 0.000000
0.000935 0.000910 0.000000
0.000945 0.000906 0.000000
0.000953 0.000898 0.000000
0.000100 0.000300 0.000000
0.000100 0.000310 0.000000
0.000100 0.000320 0.000000
0.000100 0.000330 0.000000
0.000100 0.000340 0.000000
0.000101 0.000350 0.000000
0.000100 0.000361 0.000000
0.000101 0.000371 0.000000
0.000101 0.000380 0.000000
0.000100 0.000391 0.000000
0.000100 0.000400 0.000000
0.000104 0.000406 0.000000
0.000101 0.000418 0.000000
0.000100 0.000436 0.000000
0.000110 0.000443 0.000000
0.000096 0.000445 0.000000
0.000108 0.000460 0.000000
0.000098 0.000467 0.000000
0.000095 0.000481 0.000000
0.000106 0.000491 0.000000
0.000101 0.000494 0.000000
0.000775 0.000942 0.000000
0.000783 0.000947 0.000000
0.000807 0.000963 0.000000
0.000891 0.000933 0.000000
0.000904 0.000921 0.000000
0.000905 0.000911 0.000000
0.000926 0.000906 0.000000
0.000918 0.000902 0.000000
0.000940 0.000899 0.000000
0.000949 0.000889 0.000000
0.000110 0.000300 0.000000
0.000110 0.000310 0.000000
0.000110 0.000320 0.000000
0.000110 0.000329 0.000000
0.000111 0.000340 0.000000
0.000110 0.000350 0.000000
0.000110 0.000359 0.000000
0.000112 0.000369 0.000000
0.000110 0.000379 0.000000
0.000111 0.000389 0.000000
0.000112 0.000400 0.000000
0.000110 0.000414 0.000000
0.000116 0.000422 0.000000
0.000107 0.000427 0.000000
0.000111 0.000432 0.000000
0.000106 0.000449 0.000000
0.000115 0.000461 0.000000
0.000111 0.000471 0.000000
0.000116 0.000480 0.000000
0.000111 0.000493 0.000000
0.000119 0.000492 0.000000
0.000725 0.000892 0.000000
0.000681 0.000814 0.000000
0.000841 0.000953 0.000000
0.000863 0.000942 0.000000
0.000853 0.000939 0.000000
[...]
POINT_DATA 6231
SCALARS density float 1
LOOKUP_TABLE default
4413.444058
4425.393257
4423.390177
4424.255266
4423.325834
4423.560282
4423.590201
4424.535530
4428.652201
4428.876102
4426.382925
4430.593814
4428.961362
4430.703897
4430.761143
4439.440017
4423.397150
4432.588728
4412.857548
4424.246514
4411.235134
4421.931777
4426.745140
4431.173452
4441.036900
4419.654658
4397.379979
4429.567891
4450.494713
4452.696804
4417.604913
4417.568338
4423.612739
4426.870187
4426.190555
4422.388228
4429.083787
4427.285969
4431.902532
4428.466468
4430.305953
4425.705399
4433.298815
4424.554470
4435.327528
4416.590717
4427.811929
4411.118782
4441.862335
4462.857486
4460.128375
4416.078489
4411.005446
4415.633083
4436.298435
4506.544851
4392.435277
4399.448477
4426.418412
4400.736861
4455.237553
4441.690133
4418.365178
4429.114704
4426.552630
4422.166378
4433.451692
4428.652538
4419.750142
4431.163833
4412.547648
4433.666474
4424.640376
4432.568314
4420.050592
4439.519829
4417.501256
4473.133766
4399.874326
4453.755397
4351.376028
4450.894858
4421.172505
4419.860443
4428.188548
4412.707536
4502.812977
4330.282818
4367.972626
4415.966898
4421.406081
4424.193298
4400.166037
4427.680567
4429.649106
4424.120065
4431.833380
4430.427688
4425.440821
4431.840723
4438.282879
4428.910134
4441.981164
4408.653890
4439.472591
4421.144585
4442.697047
4404.027605
4429.876195
4394.987727
4456.230173
4370.207572
4552.779543
4372.327490
4430.451812
4455.859474
4437.930241
4481.778488
4343.221594
4489.848116
4465.461937
4410.861481
4476.672113
4435.464160
4425.495910
4427.279983
4431.134796
4437.528100
4422.840270
4440.032898
4434.823200
4422.088498
4423.460104
4422.047734
4421.198047
4448.668984
4404.405231
4443.944121
4419.671668
4451.792085
4389.372293
4507.080503
4308.847535
4419.248649
4384.459291
4436.167888
4414.377735
4432.008097
4415.927378
4480.593627
4424.408684
4408.577889
4483.226680
4441.861053
4413.267989
4426.310772
4439.631502
4425.647529
4429.212941
4435.052809
4431.311057
4418.476949
4452.119851
4431.066511
4437.670346
4427.623157
4425.583151
4420.814332
4452.210892
4372.165206
4479.689685
4361.893681
4471.578494
4357.180363
4539.605417
4381.398671
4444.444375
4429.896021
4448.656327
4409.382788
4444.433836
4450.332414
4386.545301
4401.754630
4419.668604
4417.482688
4435.730501
4436.453451
4417.612803
4444.782406
4429.585817
4441.545922
4415.111338
4430.813339
4388.473195
4441.707950
4416.773375
4438.584293
4415.824691
4433.250781
4421.609619
4462.449465
4401.827405
4518.711595
4381.535471
4482.846820
4432.067690
4416.891208
4396.990283
4415.566750
4460.726820
4465.601116
4421.308085
4403.997255
4420.862090
4424.939694
4426.346746
4429.202354
4423.965475
4432.663086
4439.452200
4397.660360
4453.849532
4398.710608
4437.656029
4403.131619
4460.179117
4390.871886
4442.306166
4402.823371
4441.613910
4434.012054
4454.659461
4443.890053
4448.309985
4446.938400
4412.229030
4391.353445
4439.894993
4454.421130
4434.038289
4443.714288
4433.022714
4427.011651
4453.888779
4441.263905
4449.189304
4412.392263
4427.204962
4432.754067
4425.954536
4410.397074
4440.272602
4431.890128
4427.781462
4456.294622
4418.867063
4426.548386
4420.132491
4437.097850
4420.566876
4439.188829
4462.872895
4387.000186
4452.332422
4448.650237
4369.341119
4463.193884
4414.041884
4434.339654
4414.811156
4413.690497
4442.293408
4374.274706
4464.139018
4425.000764
4401.521971
4433.697616
4438.737998
4427.254581
4430.986386
4420.132319
4426.504422
4437.988733
4408.745524
4444.954021
4438.606296
4443.920493
4441.096482
4441.705007
4401.520212
4429.308812
4451.029576
4416.270854
4380.454264
4439.547518
4434.538080
4422.049429
4424.348660
4415.053001
4427.672296
4427.657246
4426.223348
4480.826296
4407.459817
4391.583143
4442.226328
4442.359697
4428.175110
4413.786881
4427.716583
4421.453882
4438.374709
4430.103593
4418.228236
4439.965830
4426.652012
4408.128138
4437.129983
4399.309537
4436.797099
4449.684616
4415.888042
4390.717731
4439.688873
4454.283103
4423.892893
4464.245590
4416.018612
4440.364421
4421.234793
4422.948965
4431.302953
4422.450261
4447.564228
4457.714941
4371.419418
4403.126938
4467.516173
4452.702843
4421.957388
4428.331678
4432.178222
4431.065368
4420.656821
4435.999917
4433.433538
4423.560046
4449.829535
4426.911719
4446.960492
4412.320108
4441.159869
4401.434124
4451.039683
4433.490530
4435.186393
4458.821286
4391.333672
4464.564671
4400.627054
4406.316284
4437.471253
4439.211049
4437.687251
4397.502741
4440.653876
4456.258504
4460.834000
4408.397540
4424.438031
4454.081245
4429.018228
4432.073952
4420.710534
4434.471320
4434.990672
4415.273289
4419.788221
4438.702388
4385.547999
4453.518758
4408.913710
4421.350035
4456.541780
4437.029952
4434.609021
4383.460581
4447.524718
4406.796008
4426.727294
4431.112216
4389.338003
4442.407514
4420.577558
4431.664040
4449.872172
4452.213307
4425.035729
4340.678577
4457.556320
4389.198983
4415.609215
4430.619693
4439.145332
4422.951388
4437.676001
4414.211069
4444.428412
4444.849986
4423.547824
4451.209934
4430.514692
4427.696225
4409.680476
4423.962150
4453.435672
4411.179960
4441.889106
4395.226005
4442.992415
4512.942034
4416.725339
4437.861179
4435.459199
4420.152840
4423.504587
4433.614573
4428.561385
4443.962627
4469.697116
4473.172790
4495.167685
4452.468709
4435.759346
4439.719841
4422.878634
4433.189953
4425.378714
4425.389594
4410.677909
4410.400822
4446.347355
4397.913306
4435.226925
4440.878816
4422.771838
4414.899954
4440.561508
4381.552350
4434.896048
4505.765210
4566.522714
4379.690576
4373.832311
4410.253404
4419.229267
4448.123921
4443.998985
4377.183387
4459.569818
4415.451058
4401.472076
4404.571828
4449.987218
4431.757933
4429.065045
4435.016877
4426.901892
4430.055327
4420.620329
4431.373036
4460.172346
4411.392594
4428.269034
4435.101923
4421.953018
4442.525674
4385.901181
4485.792424
4391.234755
4494.711842
4345.706497
4325.525723
4482.002685
4396.919166
4411.119841
4435.650843
4440.732395
4485.933565
4444.931885
4421.075299
4438.090009
4400.845395
4426.477280
4412.116324
4430.560867
4428.976725
4439.492268
4421.288969
4433.196890
4432.080016
4399.455027
4413.546552
4396.932166
4455.096011
4422.766905
4389.123763
4466.405019
4413.704206
4412.763309
4455.119443
4401.938629
4484.603497
4483.744663
4419.486477
4404.708543
4424.981281
4452.613054
4409.112082
4374.649659
4464.134022
4452.681588
4424.088959
4404.519545
4431.009043
4428.774249
4435.895544
4432.019075
4421.139179
4438.924539
4429.370393
4425.369559
4440.767589
4434.307425
4434.988649
4407.623748
4459.840471
4447.971123
4406.473528
4456.604327
4436.589246
4428.783497
4395.775736
4490.149613
4360.965998
4363.327358
4428.373606
4423.333813
4440.717882
4443.069742
4401.609139
4448.502708
4435.446619
4427.948436
4469.896129
4437.895076
4439.285300
4431.233580
4432.917424
4431.703186
4441.161533
4426.310992
4425.653224
4429.664404
4399.533028
4447.185186
4448.664629
4400.172599
4423.603319
4423.367554
4432.512765
4381.595470
4466.558765
4348.546314
4462.790261
4395.123538
4448.206509
4396.142225
4430.240020
4433.319716
4433.738805
4457.111622
4401.514336
4460.639584
4456.342814
4414.067291
4407.621547
4422.469084
4430.486553
4421.302786
4431.675663
4411.501117
4444.312700
4439.032700
4423.180367
4455.424398
4405.680929
4422.823207
4426.288981
4448.376093
4419.031925
4436.642904
4438.398271
4451.495961
4372.263997
4458.465953
4430.685862
4566.546860
4377.207301
4472.903687
4426.437191
4439.781789
4436.879380
4387.115743
4455.454693
4399.198653
4405.822821
4425.189756
4417.617307
4434.162363
4431.424658
4440.279656
4435.478209
4421.473157
4423.870492
4409.911627
4436.772323
4425.359067
4418.509688
4424.300493
4425.022148
4410.316342
4436.953759
4412.773370
4456.733936
4439.616128
4467.374462
4374.982724
4382.032729
4431.077206
4410.396958
4424.259005
4458.282756
4416.316419
4399.999174
4425.044793
4442.735100
4457.681761
4411.574828
4406.172255
4435.505582
4431.543725
4417.742959
4433.045624
4424.400556
4444.315115
4431.733997
4417.495432
4419.686031
4447.880027
4408.425334
4441.705096
4438.062347
4428.072749
4407.691915
4457.723643
4429.572245
4441.193368
4398.453162
4463.581172
4411.667593
4444.855112
4415.960033
4419.518146
4437.607768
4411.964225
4393.876418
4447.056152
4364.032447
4422.911701
4445.066793
4428.375180
4433.109413
4434.172349
4442.033981
4418.645429
4414.327490
4420.522451
4447.212250
4412.103879
4425.211800
4426.946837
4426.531566
4454.462318
4399.796192
4411.408114
4466.472583
4372.998480
4397.243611
4439.674790
4444.880096
4423.827803
4424.591075
4427.132779
4461.357299
4413.616424
4451.343871
4474.296258
4369.194326
4466.303119
4377.650211
4421.026679
4429.161179
4431.213189
4426.963165
4420.133310
4428.149331
4454.254896
4419.906549
4414.056118
4419.957963
4443.389356
4410.176427
4437.508569
4426.209023
4431.851731
4442.850729
4406.833404
4452.263851
4424.677286
4403.967758
4444.422300
4420.639015
4416.213051
4462.293664
4416.576331
4431.331137
4454.568620
4431.530994
4365.516737
4441.150888
4427.769087
4449.359751
4425.495566
4429.233243
4424.850038
4436.023046
4430.531715
4404.874057
4426.593607
4431.533954
4422.391628
4418.252254
4435.924465
4426.259010
4415.158654
4422.265711
4402.784078
4428.925844
4390.778560
4469.061719
4437.164034
4489.302677
4409.800923
4417.557187
4454.648302
4419.579060
4450.268196
4436.998865
4461.116680
4421.938517
4456.297309
4425.444404
4437.195834
4426.047915
4437.606891
4427.957775
4425.594253
4426.948300
4432.590123
4444.356774
4397.771558
4437.471806
4430.241059
4419.408046
4428.206333
4441.267356
4426.834130
4436.518661
4460.728476
4398.800975
4454.699193
4360.184411
4417.101642
4430.551860
4407.653864
4452.182850
4440.539659
4421.132364
4431.842481
4426.774082
4422.625782
4415.289013
4414.863536
4418.175466
4432.464318
4434.446249
4417.411652
4438.501020
4421.603104
4424.812050
4406.149717
4445.895637
4434.316704
4415.850562
4425.172213
4449.937226
4386.360942
4441.678545
4405.176702
4448.150126
4425.652446
4470.795379
4410.844204
4447.079913
4421.864637
4464.931021
4427.317904
4375.354776
4425.003774
4431.303010
4416.196521
4446.227677
4488.152012
4422.685040
4445.502013
4432.749835
4428.286648
4430.474584
4442.515978
4416.221714
4443.872497
4424.300040
4436.283335
4396.241500
4446.918520
4411.454521
4425.433913
4400.926270
4455.370148
4402.971619
4459.063510
4397.703465
4480.272800
4401.486957
4434.787821
4415.078086
4421.948436
4431.865647
4432.692205
4416.432875
4431.223630
4418.535697
4423.888798
4385.500636
4385.513396
4428.371074
4427.780592
4431.833981
4428.829655
4422.401409
4431.072282
4442.612754
4414.485205
4427.594724
4423.454441
4443.574177
4402.792172
4437.468992
4433.599396
4432.350731
4427.059509
4422.655277
4398.044553
4449.482232
4425.771261
4430.669624
4409.249983
4432.811983
4417.323917
4428.707478
4478.498820
4385.522221
4421.700607
4445.591641
4388.499003
4439.264877
4407.643460
4428.253404
4431.337156
4424.130507
4438.197459
4442.451348
4408.885389
4437.599707
4446.984551
4405.143959
4414.574160
4428.342103
4436.695316
4425.373640
4400.496679
4439.937608
4443.364824
4405.808077
4369.638978
4395.163555
4464.905757
4440.467851
4411.946022
4404.269707
4397.763995
4451.386659
4438.663716
4436.501780
4470.115004
4452.364091
4437.247803
4457.861244
4430.717691
4429.785957
4431.122572
4421.900663
4422.013382
4442.416381
4429.341703
4405.668123
4442.888916
4423.490523
4437.159595
4396.899037
4453.269606
4445.127570
4409.530320
4433.571143
4404.087593
4488.471833
4456.231073
4438.033801
4444.045084
4423.658880
4449.983339
4420.133114
4437.644728
4439.179700
4426.026436
4430.930951
4421.401628
4397.065935
4424.474486
4428.184498
4432.842610
4437.203420
4436.351977
4435.688000
4426.640291
4426.339539
4430.399645
4448.907178
4402.528577
4438.959518
4440.478623
4424.001405
4419.502763
4437.063917
4448.391767
4394.291782
4446.579087
4390.298615
4377.910506
4430.013100
4434.555445
4425.389679
4388.625755
4468.971524
4389.011612
4425.536216
4415.150004
4467.675285
4364.100221
4422.313929
4437.583818
4432.563216
4418.851801
4422.544634
4432.677491
4423.326379
4434.618630
4427.350659
4396.631359
4459.235937
4425.104844
4422.824055
4422.644253
4447.245833
4428.224984
4438.700095
4409.545977
4390.506646
4463.299295
4464.129478
4445.994192
4400.503071
4405.335763
4426.706164
4449.620167
4431.124612
4376.415943
4457.231509
4425.052031
4460.328046
4423.314615
4436.683218
4426.571008
4443.900156
4439.728470
4415.082129
4445.522556
4403.199256
4433.136271
4426.605844
4426.954864
4394.639780
4459.600133
4426.724154
4440.751411
4395.470088
4433.658320
4446.860226
4467.207378
4333.989024
4473.881653
4459.633439
4422.484960
4491.668639
4432.282458
4454.816929
4462.418004
4441.886554
4421.211963
4390.985546
4400.554849
4435.095469
4436.915989
4426.193295
4416.709180
4411.357304
4428.075123
4433.719267
4411.987854
4450.035054
4392.990107
4439.293306
4413.841265
4433.596383
4396.781624
4436.499074
4406.730810
4442.355472
4382.633329
4442.044541
4322.298051
4497.910494
4466.051034
4422.174930
4408.782776
4521.366853
4385.889614
4441.426108
4396.705282
4467.226826
4360.527036
4433.024242
4444.498157
4430.611368
4436.336432
4428.688620
4445.313985
4432.210714
4431.670513
4427.350106
4415.137716
4423.428844
4442.000974
4405.375541
4420.535364
4414.367858
4450.068981
4399.039143
4453.584120
4384.213917
4480.177943
4454.999967
4507.755223
4422.249714
4419.342080
4363.650264
4429.290215
4408.434496
4433.800165
4461.832585
4461.920871
4453.329039
4370.925733
4456.096195
4419.269661
4421.057862
4442.197246
4401.669060
4443.509777
4425.849331
4433.683858
4409.589783
4434.948848
4409.193641
4431.772829
4444.564336
4406.433975
4431.385292
4425.923589
4441.956910
4426.660881
4438.124572
4435.798286
4511.314282
4558.951749
4422.087831
4493.468849
4415.656510
4417.174393
4467.364020
4393.850689
4415.114819
4438.917771
4433.420840
4415.857568
4426.414750
4431.231735
4426.800820
4428.297100
4410.447359
4438.444171
4437.739280
4427.010148
4425.540410
4433.515461
4438.669396
4448.432072
4412.380715
4435.080240
4435.234990
4417.799358
4444.666561
4406.549614
4407.294963
4428.252433
4389.175540
4415.878041
4418.048132
4413.159624
4423.288823
4452.483769
4372.300836
4368.832241
4499.936547
4473.662658
4417.857817
4423.993506
4428.268046
4416.586768
4419.847871
4395.533252
4435.970923
4414.298563
4403.314673
4440.429575
4407.248742
4414.853950
4444.661990
4413.944567
4457.980126
4415.603071
4460.542708
4387.354091
4453.880558
4429.516654
4452.421922
4428.906969
4478.245221
4420.143444
4427.323561
4429.493448
4463.356811
4479.027152
4436.795566
4365.934393
4443.236270
4394.550056
4424.146784
4427.220125
4429.809101
4440.199382
4443.036662
4435.117625
4443.099962
4429.933442
4414.672922
4448.076459
4427.801064
4430.107199
4407.231341
4409.613346
4424.360348
4431.261352
4442.206945
4389.792210
4440.043454
4461.996798
4425.328421
4433.658629
4432.804240
4418.861157
4466.058013
4458.206926
4415.730580
4534.921768
4366.150787
4431.994982
4422.826270
4428.416528
4433.543812
4420.806862
4418.322658
4417.956235
4399.306476
4422.541619
4443.226171
4429.006593
4420.715819
4392.030437
4394.521982
4414.213760
4407.863415
4416.034258
4438.757044
4390.537282
4425.461408
4431.699208
4450.008729
4435.505788
4420.683023
4447.123004
4440.454397
4477.234622
4437.011748
4469.155534
4421.695355
4342.821440
4397.873294
4419.297275
4422.375189
4415.158390
4426.694645
4432.240201
4434.917996
4440.789682
4433.927117
4421.552860
4421.081434
4403.955229
4424.024023
4474.410837
4432.965064
4429.717628
4428.397566
4418.714328
4481.119652
4374.314160
4431.493789
4438.169334
4422.458768
4423.860240
4470.142567
4378.875871
4380.262750
4482.422049
4420.818746
4390.948342
4453.154915
4473.394933
4412.824041
4424.909221
4424.994576
4433.116787
4414.268456
4424.945136
4399.554326
4436.769220
4411.326574
4435.441728
4438.396690
4374.543491
4424.239268
4432.767833
4442.244167
4399.138491
4453.460807
4394.046696
4402.193689
4362.517839
4423.280118
4435.167701
4448.379173
4384.573366
4452.640886
4432.321158
4446.037308
4394.140675
4384.481556
4471.959773
4359.401047
4418.591672
4425.620057
4415.607432
4430.874056
4408.684310
4447.819794
4428.220775
4465.097875
4395.112050
4448.576897
4410.486317
4426.657834
4433.440144
4440.171217
4425.498390
4408.973309
4428.836180
4406.260812
4448.857882
4462.767996
4452.440109
4436.309066
4454.100613
4444.245108
4414.893942
4476.982782
4456.328952
4459.470298
4471.579651
4459.529190
4415.094233
4411.014377
4424.396684
4418.559735
4438.030885
4417.711260
4426.081569
4382.224772
4419.612635
4429.359389
4428.486521
4407.986706
4448.972114
4420.717087
4384.128996
4419.715256
4435.096718
4438.544321
4409.365015
4427.057849
4393.135580
4473.571248
4441.005558
4434.871936
4378.300573
4447.763114
4424.733370
4388.053662
4447.720757
4399.816510
4447.139450
4426.032790
4409.627005
4423.647233
4420.949880
4436.772903
4402.590014
4444.826725
4444.393422
4427.970000
4416.657759
4394.162568
4456.569556
4418.523466
4438.783428
4445.034539
4455.893101
4456.990086
4435.569098
4407.741193
4452.554024
4376.469235
4435.542307
4414.493893
4402.561395
4443.012908
4399.930473
4449.387078
4437.705895
4423.037527
4395.168674
4434.918059
4390.045749
4466.766373
4425.337406
4429.710152
4422.626580
4442.454157
4408.264569
4440.882958
4444.290661
4415.131042
4405.970019
4441.492202
4417.001032
4412.962712
4408.872544
4394.733194
4418.191324
4426.342175
4420.942490
4463.749446
4434.705171
4336.063261
4395.756061
4448.077300
4431.538384
4409.697030
4443.235872
4444.065636
4454.566228
4358.124694
4423.297227
4409.553044
4366.556618
4432.231858
4436.096938
4416.540238
4430.221914
4426.528122
4398.663888
4440.129408
4425.941201
4421.329616
4419.581958
4444.463735
4436.237109
4424.073414
4431.271520
4452.893597
4388.655577
4420.513923
4458.196292
4376.952805
4539.684143
4383.799982
4428.333116
4404.231511
4425.130686
4404.886531
4441.438012
4437.388461
4448.509558
4480.129464
4399.433419
4433.286668
4428.414597
4429.037583
4429.730083
4422.771594
4418.704762
4424.613408
4395.601415
4426.619488
4413.457146
4423.444025
4460.724395
4429.497519
4443.381465
4375.373717
4439.085795
4462.250033
4456.195674
4450.826208
4421.266026
4426.726841
4490.524335
4486.089977
4464.192932
4418.354788
4471.363642
4430.924138
4411.476219
4436.488245
4462.333850
4443.909115
4481.440707
4430.096929
4424.052961
4441.297997
4427.165963
4427.751636
4431.743574
4456.509815
4426.857930
4400.185953
4423.950737
4415.767139
4386.893391
4408.646481
4442.366518
4435.300706
4445.486324
4391.115906
4417.512169
4408.927121
4437.856519
4722.196746
4451.972424
4470.884947
4479.661685
4464.849276
4444.276512
4431.192614
4382.837518
4368.411791
4339.172754
4382.496128
4433.815479
4435.141813
4412.407330
4418.796049
4438.307566
4417.129987
4436.461120
4403.050239
4441.210273
4438.660838
4418.136259
4445.427866
4412.884612
4400.904729
4427.129872
4445.519997
4427.135956
4447.714771
4423.648776
4422.650393
4443.951920
4418.620738
4441.593789
4419.522407
4455.617618
4440.564699
4431.951268
4438.581930
4474.397260
4419.963532
4453.190683
4428.086509
4418.336489
4439.114479
4429.823428
4416.518691
4428.499791
4416.778533
4433.871271
4448.293265
4419.009818
4402.081725
4438.875231
4424.911651
4398.019441
4425.761747
4405.881673
4445.692055
4427.429504
4385.933493
4408.497370
4415.175057
4459.232906
4454.967759
4448.077292
4389.878237
4410.724700
4443.016092
4391.585327
4464.141789
4405.631898
4420.710330
4431.083237
4422.854947
4428.763313
4451.207412
4441.584620
4413.175874
4427.408461
4417.579676
4434.571447
4394.443081
4442.011463
4420.013905
4427.703548
4446.668999
4415.811973
4451.854596
4427.372058
4468.107831
4479.666600
4382.295535
4427.087350
4461.232113
4440.728654
4379.246328
4454.775756
4450.838377
4414.509067
4468.709629
4421.080579
4430.111754
4388.603191
4421.930023
4438.884939
4407.209212
4394.948611
4440.241397
4434.641185
4427.211859
4428.505070
4448.947696
4429.057666
4435.501950
4416.158424
4434.217803
4431.971638
4424.615346
4432.167869
4401.528076
4455.397131