# vtk DataFile Version 2.0
mfree iwf
ASCII

DATASET UNSTRUCTURED_GRID
POINTS 6231 float
0.000000 0.000300 0.000000
0.000000 0.000310 0.000000
0.000000 0.000320 0.000000
0.000000 0.000330 0.000000
0.000000 0.000340 0.000000
0.000000 0.000350 0.000000
0.000000 0.000360 0.000000
0.000001 0.000370 0.000000
0.000001 0.000380 0.000000
0.000001 0.000390 0.000000
0.000001 0.000400 0.000000
0.000001 0.000410 0.000000
0.000001 0.000420 0.000000
0.000001 0.000430 0.000000
0.000001 0.000440 0.000000
0.000001 0.000450 0.000000
0.000002 0.000460 0.000000
0.000002 0.000470 0.000000
0.000002 0.000480 0.000000
0.000001 0.000492 0.000000
0.000006 0.000501 0.000000
0.000906 0.001009 0.000000
0.000980 0.001044 0.000000
0.000923 0.001016 0.000000
0.000992 0.001049 0.000000
0.001014 0.001054 0.000000
0.001063 0.001058 0.000000
0.001072 0.001056 0.000000
0.001083 0.001051 0.000000
0.001096 0.001048 0.000000
0.001126 0.001049 0.000000
0.000010 0.000300 0.000000
0.000010 0.000310 0.000000
0.000010 0.000320 0.000000
0.000010 0.000330 0.000000
0.000010 0.000340 0.000000
0.000010 0.000350 0.000000
0.000010 0.000360 0.000000
0.000011 0.000370 0.000000
0.000011 0.000380 0.000000
0.000011 0.000390 0.000000
0.000011 0.000400 0.000000
0.000011 0.000410 0.000000
0.000011 0.000420 0.000000
0.000011 0.000430 0.000000
0.000011 0.000440 0.000000
0.000011 0.000450 0.000000
0.000012 0.000460 0.000000
0.000011 0.000472 0.000000
0.000013 0.000478 0.000000
0.000009 0.000492 0.000000
0.000013 0.000498 0.000000
0.001033 0.001050 0.000000
0.001049 0.001051 0.000000
0.001056 0.001052 0.000000
0.001062 0.001050 0.000000
0.001078 0.001043 0.000000
0.001090 0.001042 0.000000
0.001104 0.001038 0.000000
0.001115 0.001039 0.000000
0.001120 0.001036 0.000000
0.001123 0.001045 0.000000
0.000020 0.000300 0.000000
0.000020 0.000310 0.000000
0.000020 0.000320 0.000000
0.000020 0.000330 0.000000
0.000021 0.000340 0.000000
0.000020 0.000350 0.000000
0.000021 0.000360 0.000000
0.000021 0.000370 0.000000
0.000020 0.000380 0.000000
0.000021 0.000390 0.000000
0.000020 0.000400 0.000000
0.000022 0.000410 0.000000
0.000020 0.000420 0.000000
0.000022 0.000430 0.000000
0.000020 0.000440 0.000000
0.000023 0.000451 0.000000
0.000021 0.000460 0.000000
0.000022 0.000470 0.000000
0.000021 0.000482 0.000000
0.000024 0.000494 0.000000
0.000020 0.000497 0.000000
0.001000 0.001040 0.000000
0.001029 0.001046 0.000000
0.001039 0.001047 0.000000
0.001044 0.001045 0.000000
0.001053 0.001038 0.000000
0.001069 0.001041 0.000000
0.001095 0.001035 0.000000
0.001110 0.001034 0.000000
0.001117 0.001025 0.000000
0.001124 0.001022 0.000000
0.000030 0.000300 0.000000
0.000030 0.000310 0.000000
0.000030 0.000320 0.000000
0.000031 0.000330 0.000000
0.000030 0.000340 0.000000
0.000030 0.000350 0.000000
0.000031 0.000360 0.000000
0.000030 0.000371 0.000000
0.000031 0.000380 0.000000
0.000030 0.000390 0.000000
0.000031 0.000400 0.000000
0.000031 0.000411 0.000000
0.000031 0.000420 0.000000
0.000031 0.000430 0.000000
0.000031 0.000440 0.000000
0.000031 0.000450 0.000000
0.000031 0.000459 0.000000
0.000036 0.000473 0.000000
0.000029 0.000478 0.000000
0.000032 0.000488 0.000000
0.000032 0.000497 0.000000
0.000063 0.000500 0.000000
0.001021 0.001041 0.000000
0.001037 0.001032 0.000000
0.001063 0.001033 0.000000
0.001073 0.001024 0.000000
0.001079 0.001036 0.000000
0.001083 0.001029 0.000000
0.001094 0.001026 0.000000
0.001101 0.001024 0.000000
0.001123 0.001014 0.000000
0.000040 0.000300 0.000000
0.000040 0.000310 0.000000
0.000040 0.000320 0.000000
0.000040 0.000331 0.000000
0.000040 0.000340 0.000000
0.000040 0.000350 0.000000
0.000040 0.000360 0.000000
0.000040 0.000369 0.000000
0.000041 0.000380 0.000000
0.000040 0.000390 0.000000
0.000042 0.000399 0.000000
0.000040 0.000410 0.000000
0.000042 0.000420 0.000000
0.000041 0.000431 0.000000
0.000042 0.000439 0.000000
0.000043 0.000450 0.000000
0.000042 0.000460 0.000000
0.000037 0.000469 0.000000
0.000045 0.000477 0.000000
0.000043 0.000496 0.000000
0.000040 0.000498 0.000000
0.000805 0.000867 0.000000
0.001028 0.001033 0.000000
0.001046 0.001031 0.000000
0.001054 0.001025 0.000000
0.001064 0.001031 0.000000
0.001083 0.001020 0.000000
0.001105 0.001014 0.000000
0.001102 0.001004 0.000000
0.001113 0.001017 0.000000
0.001121 0.001005 0.000000
0.000050 0.000300 0.000000
0.000050 0.000310 0.000000
0.000050 0.000320 0.000000
0.000050 0.000329 0.000000
0.000051 0.000340 0.000000
0.000050 0.000350 0.000000
0.000050 0.000361 0.000000
0.000051 0.000371 0.000000
0.000051 0.000380 0.000000
0.000051 0.000389 0.000000
0.000051 0.000400 0.000000
0.000050 0.000411 0.000000
0.000052 0.000420 0.000000
0.000051 0.000430 0.000000
0.000053 0.000440 0.000000
0.000048 0.000451 0.000000
0.000054 0.000458 0.000000
0.000053 0.000469 0.000000
0.000056 0.000483 0.000000
0.000048 0.000488 0.000000
0.000050 0.000498 0.000000
0.001019 0.001048 0.000000
0.000974 0.001035 0.000000
0.001041 0.001024 0.000000
0.001056 0.001011 0.000000
0.001071 0.001014 0.000000
0.001086 0.001013 0.000000
0.001076 0.001007 0.000000
0.001095 0.001012 0.000000
0.001110 0.001005 0.000000
0.001116 0.000994 0.000000
0.000060 0.000300 0.000000
0.000060 0.000310 0.000000
0.000060 0.000320 0.000000
0.000060 0.000331 0.000000
0.000061 0.000339 0.000000
0.000059 0.000350 0.000000
0.000061 0.000358 0.000000
0.000060 0.000368 0.000000
0.000061 0.000380 0.000000
0.000060 0.000391 0.000000
0.000062 0.000400 0.000000
0.000060 0.000409 0.000000
0.000063 0.000419 0.000000
0.000059 0.000431 0.000000
0.000065 0.000440 0.000000
0.000060 0.000449 0.000000
0.000065 0.000460 0.000000
0.000055 0.000472 0.000000
0.000064 0.000475 0.000000
0.000068 0.000486 0.000000
0.000058 0.000496 0.000000
0.001008 0.001047 0.000000
0.001019 0.001032 0.000000
0.001035 0.001014 0.000000
0.001049 0.001017 0.000000
0.001064 0.001005 0.000000
0.001068 0.000997 0.000000
0.001096 0.000995 0.000000
0.001087 0.001003 0.000000
0.001106 0.000994 0.000000
0.001114 0.000986 0.000000
0.000070 0.000300 0.000000
0.000070 0.000310 0.000000
0.000070 0.000319 0.000000
0.000070 0.000329 0.000000
0.000071 0.000340 0.000000
0.000071 0.000351 0.000000
0.000072 0.000359 0.000000
0.000068 0.000373 0.000000
0.000081 0.000377 0.000000
0.000070 0.000389 0.000000
0.000073 0.000400 0.000000
0.000069 0.000411 0.000000
0.000075 0.000421 0.000000
0.000068 0.000429 0.000000
0.000075 0.000438 0.000000
0.000067 0.000451 0.000000
0.000077 0.000458 0.000000
0.000073 0.000470 0.000000
0.000076 0.000486 0.000000
0.000068 0.000495 0.000000
0.000076 0.000496 0.000000
0.000797 0.000845 0.000000
0.001008 0.001034 0.000000
0.001028 0.001022 0.000000
0.001047 0.000994 0.000000
0.001063 0.001016 0.000000
0.001078 0.000997 0.000000
0.001088 0.000994 0.000000
0.001082 0.000986 0.000000
0.001102 0.000985 0.000000
0.001110 0.000976 0.000000
0.000080 0.000300 0.000000
0.000080 0.000310 0.000000
0.000081 0.000321 0.000000
0.000079 0.000331 0.000000
0.000081 0.000340 0.000000
0.000080 0.000350 0.000000
0.000082 0.000361 0.000000
0.000075 0.000370 0.000000
0.000075 0.000383 0.000000
0.000080 0.000392 0.000000
0.000089 0.000397 0.000000
0.000079 0.000410 0.000000
0.000085 0.000416 0.000000
0.000079 0.000431 0.000000
0.000086 0.000445 0.000000
0.000077 0.000448 0.000000
0.000085 0.000463 0.000000
0.000074 0.000470 0.000000
0.000087 0.000473 0.000000
0.000085 0.000482 0.000000
0.000084 0.000495 0.000000
0.000998 0.001045 0.000000
0.000970 0.001041 0.000000
0.001032 0.001003 0.000000
0.001042 0.001009 0.000000
0.001055 0.001000 0.000000
0.001062 0.000989 0.000000
0.001071 0.000987 0.000000
0.001092 0.000982 0.000000
0.001099 0.000976 0.000000
0.001106 0.000967 0.000000
0.000090 0.000300 0.000000
0.000090 0.000310 0.000000
0.000090 0.000319 0.000000
0.000090 0.000329 0.000000
0.000091 0.000340 0.000000
0.000089 0.000350 0.000000
0.000092 0.000362 0.000000
0.000088 0.000369 0.000000
0.000093 0.000379 0.000000
0.000089 0.000387 0.000000
0.000084 0.000404 0.000000
0.000093 0.000410 0.000000
0.000087 0.000425 0.000000
0.000096 0.000426 0.000000
0.000089 0.000435 0.000000
0.000097 0.000455 0.000000
0.000087 0.000453 0.000000
0.000097 0.000471 0.000000
0.000106 0.000480 0.000000
0.000089 0.000494 0.000000
0.000094 0.000495 0.000000
0.000813 0.000883 0.000000
0.001002 0.001028 0.000000
0.000991 0.001035 0.000000
0.001021 0.001022 0.000000
0.001039 0.000991 0.000000
0.001065 0.000979 0.000000
0.001080 0.000978 0.000000
0.001086 0.000972 0.000000
0.001095 0.000967 0.000000
0.001102 0.000958 0.000000
0.000100 0.000300 0.000000
0.000100 0.000310 0.000000
0.000101 0.000321 0.000000
0.000099 0.000331 0.000000
0.000102 0.000339 0.000000
0.000099 0.000350 0.000000
0.000101 0.000359 0.000000
0.000100 0.000371 0.000000
0.000100 0.000381 0.000000
0.000100 0.000391 0.000000
0.000100 0.000400 0.000000
0.000103 0.000406 0.000000
0.000101 0.000418 0.000000
0.000100 0.000436 0.000000
0.000110 0.000444 0.000000
0.000096 0.000445 0.000000
0.000107 0.000460 0.000000
0.000098 0.000467 0.000000
0.000094 0.000481 0.000000
0.000106 0.000491 0.000000
0.000101 0.000494 0.000000
0.000929 0.001020 0.000000
0.000938 0.001025 0.000000
0.000964 0.001038 0.000000
0.001044 0.001001 0.000000
0.001055 0.000986 0.000000
0.001055 0.000975 0.000000
0.001076 0.000969 0.000000
0.001067 0.000966 0.000000
0.001089 0.000961 0.000000
0.001097 0.000950 0.000000
0.000110 0.000300 0.000000
0.000110 0.000310 0.000000
0.000110 0.000319 0.000000
0.000110 0.000329 0.000000
0.000111 0.000342 0.000000
0.000110 0.000351 0.000000
0.000110 0.000360 0.000000
0.000111 0.000370 0.000000
0.000111 0.000378 0.000000
0.000112 0.000388 0.000000
0.000113 0.000400 0.000000
0.000110 0.000414 0.000000
0.000116 0.000422 0.000000
0.000106 0.000427 0.000000
0.000112 0.000432 0.000000
0.000107 0.000449 0.000000
0.000115 0.000461 0.000000
0.000111 0.000471 0.000000
0.000116 0.000480 0.000000
0.000111 0.000493 0.000000
0.000119 0.000492 0.000000
0.000875 0.000975 0.000000
0.000823 0.000903 0.000000
0.000996 0.001023 0.000000
0.001016 0.001011 0.000000
0.001006 0.001008 0.000000
[...]
POINT_DATA 6231
SCALARS density float 1
LOOKUP_TABLE default
4413.732763
4427.642375
4423.181132
4422.262682
4422.399176
4421.383661
4424.517129
4426.162054
4428.785176
4429.797894
4426.408895
4430.396504
4429.722269
4432.618118
4431.736415
4438.845384
4423.446262
4432.687124
4413.622681
4424.250725
4411.212580
4422.404853
4424.431256
4427.509229
4437.565608
4419.522956
4396.421050
4425.661366
4448.704090
4449.653952
4418.316331
4418.451819
4424.902823
4424.899491
4428.269197
4430.276583
4430.635979
4427.579539
4431.726945
4428.680233
4431.337375
4427.268773
4434.136583
4424.614734
4431.777068
4414.851095
4430.746752
4411.760846
4439.391728
4464.273738
4459.889739
4416.088994
4407.263896
4418.200283
4438.696186
4513.535087
4406.525191
4406.544069
4424.344800
4398.234611
4450.435045
4438.787377
4419.703173
4427.195246
4429.084332
4423.425121
4423.188630
4426.878838
4421.826358
4430.594076
4414.894177
4431.454914
4424.675359
4433.300362
4421.268736
4444.838854
4419.546066
4469.230262
4401.507736
4454.776394
4350.394470
4451.485112
4421.395417
4426.933551
4437.923227
4415.312733
4505.806123
4319.199846
4359.658699
4418.132005
4427.629445
4424.755653
4402.307914
4428.258897
4430.906201
4425.483847
4431.023643
4435.377924
4431.681857
4430.088560
4437.640337
4430.191456
4444.326828
4410.289132
4438.728047
4419.178741
4438.866756
4405.358658
4428.441793
4398.630621
4452.497437
4374.766973
4550.271507
4372.534551
4431.436972
4469.178569
4439.767161
4472.109466
4346.267256
4471.659087
4459.131386
4414.411682
4474.668429
4432.654954
4428.804776
4426.083490
4430.102751
4435.989812
4425.068183
4431.193768
4432.904423
4426.234019
4418.316571
4423.579940
4418.727995
4449.390378
4409.894242
4443.134626
4422.198103
4453.375491
4388.534063
4507.093386
4309.766020
4419.366686
4385.248480
4428.628841
4394.568930
4431.997353
4430.673089
4506.916555
4440.397437
4404.338641
4496.209443
4444.875311
4417.207825
4428.505942
4435.573613
4433.146739
4431.241257
4433.051828
4438.851976
4421.088624
4443.270145
4433.859643
4439.164015
4429.131872
4424.632545
4412.696599
4455.494240
4368.011860
4478.320886
4361.670034
4471.210900
4359.334653
4538.151482
4382.534111
4440.034840
4430.662933
4468.257900
4441.556111
4443.866946
4445.125744
4393.371390
4403.542359
4410.769123
4420.864172
4434.539045
4436.771928
4417.265129
4439.916456
4433.441311
4434.279444
4425.855447
4430.505925
4397.204096
4435.191377
4418.840330
4443.133445
4416.981515
4435.383296
4419.451239
4465.394692
4396.330236
4522.639082
4379.034676
4481.317318
4432.739418
4413.535939
4395.392846
4408.456221
4435.853873
4454.554340
4421.839964
4417.614283
4404.190290
4411.793268
4434.815615
4428.242222
4423.328322
4436.183042
4436.374416
4409.423513
4438.501286
4421.315309
4419.264677
4393.383570
4463.508563
4388.505177
4435.784547
4406.397177
4435.793450
4433.132060
4459.351262
4440.856457
4453.167577
4446.277424
4414.374363
4392.088168
4436.808160
4460.009913
4428.849631
4421.738046
4386.831307
4435.232983
4452.054143
4435.109202
4439.277557
4414.609717
4428.687548
4432.586810
4429.993350
4405.286173
4431.665317
4439.568714
4420.008084
4459.440205
4432.077910
4424.665737
4422.716647
4439.471636
4428.727966
4441.751972
4460.036284
4387.784136
4448.306944
4452.182913
4364.706450
4463.011910
4418.662050
4429.203625
4413.975210
4437.920309
4431.571212
4393.108303
4444.463053
4435.969494
4407.308121
4434.073584
4439.117234
4437.351816
4432.629302
4417.085646
4429.944394
4430.957626
4422.173614
4435.371989
4435.277943
4452.911383
4437.417903
4440.971404
4392.784233
4421.596674
4457.763866
4414.725996
4378.039972
4442.313514
4438.705659
4429.723876
4428.706596
4414.746963
4427.354613
4420.156918
4433.135387
4491.489031
4398.442576
4390.201361
4434.147739
4447.687943
4427.123502
4413.606546
4429.512652
4425.525246
4432.124154
4446.540979
4413.853629
4429.932571
4439.588455
4411.872364
4436.266426
4400.629610
4440.444614
4445.739371
4417.779130
4390.062500
4448.973750
4454.517121
4415.423512
4469.796004
4415.057141
4437.944570
4418.486008
4422.764874
4434.355143
4424.131682
4451.244918
4466.754526
4377.181206
4403.471734
4467.278334
4450.275066
4424.076030
4423.297876
4435.043601
4444.453775
4402.443957
4448.512780
4425.321093
4419.129464
4444.315601
4421.974459
4450.881381
4399.158925
4442.105660
4409.873955
4453.431247
4411.699617
4432.377586
4471.258950
4387.939967
4458.104017
4408.918530
4413.854827
4437.860234
4437.240475
4414.282452
4386.926813
4409.172268
4448.071558
4461.386990
4412.370327
4423.090044
4453.772642
4431.396091
4429.127763
4418.788794
4440.429865
4447.216216
4401.378517
4433.373458
4434.094844
4403.901630
4458.660532
4399.242473
4420.004129
4444.928446
4451.591332
4430.715053
4371.849479
4441.742150
4384.720025
4438.017953
4432.890221
4394.693831
4438.675899
4411.558333
4426.113089
4456.561899
4447.194444
4419.764634
4343.031605
4460.831122
4386.803211
4417.400763
4436.980173
4438.377903
4428.037409
4434.466767
4410.735648
4459.797111
4443.588352
4397.816800
4456.830056
4419.518022
4434.599287
4388.642474
4418.573277
4454.059079
4389.568024
4450.452363
4394.533940
4461.775265
4491.178197
4419.529415
4438.399714
4435.164884
4422.117564
4419.630603
4407.081858
4438.309599
4455.750630
4464.970598
4469.822293
4497.278808
4454.552433
4434.515642
4434.180228
4425.317907
4424.996704
4442.212430
4422.940184
4416.086013
4422.356568
4450.733492
4386.469756
4456.029409
4425.300531
4444.711790
4421.387148
4455.920433
4373.501129
4427.882001
4496.453876
4579.495086
4385.273993
4372.711432
4420.761841
4423.357591
4439.222556
4457.746146
4395.761224
4444.236006
4425.238066
4404.537422
4404.533811
4448.893275
4432.005228
4429.549333
4445.812083
4424.160632
4429.037768
4394.715984
4448.567378
4453.920855
4398.578272
4432.388603
4419.342139
4444.171120
4440.028517
4400.297023
4451.012466
4409.198884
4502.071094
4346.343413
4336.288431
4470.438737
4395.240996
4413.369711
4440.142464
4427.769276
4488.674966
4443.931726
4442.438273
4430.132898
4400.157322
4423.148498
4412.748109
4437.678535
4424.877436
4432.086384
4416.468329
4440.539175
4454.071152
4398.415701
4409.932978
4411.744746
4471.828507
4425.825145
4408.433764
4413.910821
4426.292957
4437.833852
4441.745036
4408.046747
4481.077786
4469.334455
4423.127905
4410.099264
4428.705502
4455.163703
4399.105140
4380.768994
4465.388681
4459.540008
4422.211292
4403.813139
4431.228822
4429.996559
4438.716428
4422.680351
4439.170915
4446.640943
4411.548995
4423.357156
4432.435849
4444.420137
4434.736741
4395.482856
4449.677757
4404.493400
4451.292376
4442.081630
4410.461220
4428.230699
4396.384941
4488.065517
4371.781159
4382.977230
4421.844754
4421.027009
4439.005661
4431.375402
4408.751174
4466.562392
4445.524367
4402.337476
4465.744706
4430.176557
4439.911933
4424.666943
4435.564336
4426.053547
4422.107052
4442.017431
4425.323407
4435.019743
4393.283340
4444.356351
4458.174388
4427.126485
4427.658003
4415.930049
4421.235638
4406.722072
4454.716625
4364.590227
4445.247373
4414.129374
4441.214790
4393.079314
4429.345155
4435.566463
4448.803344
4442.637465
4409.059489
4480.687946
4477.794874
4411.714406
4415.088827
4420.184667
4425.598487
4429.887448
4426.793876
4413.503761
4454.379214
4402.739683
4442.635531
4454.270014
4414.030925
4386.608208
4430.897687
4429.367398
4408.445159
4441.936763
4415.392979
4451.163475
4374.375851
4474.297344
4415.709148
4547.825012
4380.920522
4467.470768
4423.824633
4440.307984
4441.830399
4374.978397
4460.688321
4388.726663
4411.771296
4412.777425
4420.497370
4435.504483
4425.482462
4434.436123
4441.024352
4407.083381
4453.147642
4419.579127
4404.517754
4439.237527
4428.894415
4452.701889
4425.702791
4429.792469
4432.477942
4424.883180
4453.693969
4460.590575
4476.850285
4406.709849
4385.112487
4433.609004
4413.822944
4427.033982
4456.359471
4430.555491
4415.921410
4430.331773
4450.541948
4456.508586
4422.517399
4410.817193
4433.074028
4427.876038
4423.218365
4432.735042
4423.924502
4445.851035
4402.800811
4438.782931
4427.222339
4401.470648
4416.474516
4414.206717
4447.016859
4442.101355
4386.975109
4453.236565
4431.683586
4398.470935
4394.476827
4461.488872
4417.990413
4446.441840
4419.233497
4425.145743
4425.284512
4395.336130
4369.661756
4450.436105
4355.069637
4426.449463
4443.424869
4422.333816
4439.859593
4432.684861
4428.330301
4433.956125
4403.098847
4437.183476
4438.597379
4394.345534
4460.762101
4402.873190
4446.676949
4469.706100
4385.292523
4388.452153
4451.679326
4427.266420
4396.039005
4449.545946
4450.796477
4426.315825
4423.761252
4419.648007
4471.339475
4424.475360
4443.136790
4480.663209
4342.477764
4487.661689
4385.693761
4420.597932
4429.407803
4430.590169
4420.583661
4429.568219
4428.924725
4436.931241
4431.658819
4404.066770
4419.248109
4447.142808
4391.294047
4438.095231
4416.925998
4431.319366
4437.781865
4422.721262
4422.881452
4459.415605
4406.390220
4425.805140
4422.995480
4413.627118
4451.288534
4393.091809
4447.888166
4466.303488
4429.120106
4381.426990
4443.390753
4442.361916
4443.877015
4428.845440
4429.387289
4428.957216
4442.039293
4413.415088
4428.949973
4398.309381
4454.197938
4438.344601
4399.246238
4450.967583
4430.659642
4437.332452
4431.924722
4383.747206
4465.030414
4393.196541
4456.438578
4441.948867
4473.404972
4418.602389
4419.557208
4449.845988
4424.262455
4463.493708
4450.755515
4435.761054
4463.497994
4421.357017
4421.189890
4435.607535
4429.349468
4440.100034
4415.650404
4435.545537
4417.043493
4441.796944
4434.791980
4403.425455
4427.448551
4429.656349
4468.090150
4465.414464
4433.774341
4420.318916
4463.184278
4448.759473
4395.325151
4451.678849
4354.930778
4429.949774
4428.976917
4412.322848
4451.031014
4428.168831
4426.813835
4393.669086
4441.846074
4420.712358
4445.953795
4409.926905
4421.430897
4424.035410
4439.321067
4413.571634
4439.753141
4432.006471
4412.572631
4426.635252
4442.018712
4421.055826
4452.978966
4373.754227
4482.514463
4377.957198
4386.495930
4386.634520
4462.234530
4424.806135
4464.403209
4421.180248
4431.162458
4425.461660
4442.150958
4424.926152
4380.361733
4417.320827
4432.732210
4418.920990
4407.748861
4482.387216
4406.425405
4444.264270
4424.238860
4433.452075
4431.270426
4424.215092
4425.494930
4458.998141
4402.701387
4441.419099
4395.765646
4447.563331
4425.950691
4390.832525
4438.668133
4440.821442
4430.483418
4468.815441
4402.575964
4468.772306
4415.599688
4442.158361
4413.302417
4424.609743
4431.921722
4429.620782
4408.997114
4437.524862
4404.522397
4455.859485
4401.874913
4398.948150
4432.492334
4434.014637
4424.827956
4427.600152
4445.719641
4414.602600
4440.717319
4414.660359
4437.969717
4421.058100
4412.074597
4431.780266
4450.279515
4429.763302
4428.776830
4382.065018
4450.335568
4387.832024
4456.046170
4426.007003
4428.962303
4403.836683
4434.599813
4417.106648
4430.638736
4476.972120
4397.506533
4409.356362
4431.039557
4413.844554
4433.331909
4405.598972
4427.744074
4430.881924
4423.739733
4432.986813
4428.271939
4415.273622
4440.752148
4415.982926
4440.366420
4445.433194
4402.266750
4441.986650
4421.002733
4404.739268
4438.924455
4439.162277
4417.007717
4368.275246
4384.595544
4469.405245
4433.063987
4410.018518
4412.025408
4409.684226
4450.072204
4449.326541
4416.593701
4464.091409
4409.590659
4420.554437
4449.181164
4431.565725
4436.767284
4428.284601
4414.573472
4451.044621
4417.935574
4435.414020
4439.360320
4398.974095
4433.815229
4447.786733
4401.385623
4443.021860
4457.273315
4412.819136
4397.264069
4418.395894
4492.670687
4461.731938
4436.085882
4440.377928
4437.848696
4441.001077
4420.742035
4425.054428
4425.677527
4440.823157
4435.203038
4445.349174
4414.300616
4433.969883
4430.104780
4420.114365
4436.469280
4446.763027
4415.397035
4433.868019
4411.097720
4439.752837
4442.952743
4412.077414
4438.623405
4438.428352
4431.531865
4407.465102
4454.016953
4459.631349
4389.846032
4451.256551
4388.726206
4386.750674
4426.259392
4437.000489
4420.551286
4389.790318
4460.386597
4396.890613
4426.950897
4418.327687
4467.289037
4351.520472
4419.612441
4437.278185
4436.601251
4425.018359
4427.014027
4421.975671
4459.178861
4431.477496
4407.702223
4431.392833
4443.587829
4418.603884
4421.463415
4425.460295
4461.501361
4423.187004
4422.384324
4405.021338
4395.278054
4465.646498
4460.017712
4445.243186
4401.870822
4405.377461
4416.596701
4442.881728
4444.014963
4380.684326
4459.603932
4417.606282
4469.604729
4415.765783
4430.243360
4430.902745
4425.844766
4426.056568
4443.153438
4392.188893
4435.929971
4453.628515
4398.078898
4433.866613
4422.245696
4455.764802
4420.508162
4431.456653
4408.077262
4438.416602
4463.667155
4455.518304
4329.553024
4473.486415
4459.918674
4430.649339
4480.211118
4431.564362
4454.961204
4465.128039
4423.537159
4399.535864
4406.627339
4402.604842
4438.094791
4427.933329
4428.160878
4438.230005
4408.756278
4441.370208
4446.353815
4430.181141
4410.566873
4431.967483
4441.059078
4391.468306
4446.815124
4397.707537
4452.929354
4391.783847
4454.349451
4373.914736
4452.547409
4323.505207
4494.716942
4435.205680
4421.820756
4417.854368
4495.212181
4412.230970
4442.606895
4419.241963
4474.434970
4372.663954
4427.916321
4450.307791
4440.727417
4426.663048
4427.834374
4435.751910
4404.694869
4420.621981
4419.936058
4441.310956
4426.674756
4415.217998
4443.318581
4425.162637
4397.107771
4470.862773
4392.959988
4464.194319
4386.247138
4473.400589
4457.678241
4505.745187
4422.103952
4416.061870
4372.659109
4432.881428
4398.854321
4431.679315
4466.159718
4450.580897
4445.967526
4360.395590
4455.457874
4429.170176
4421.401741
4430.018083
4442.678217
4413.104650
4435.963932
4431.328810
4415.037607
4414.921461
4428.152098
4419.484630
4436.844322
4432.912204
4401.223003
4461.008550
4413.742803
4432.766008
4434.124493
4434.615138
4503.176620
4442.641044
4429.332803
4441.301032
4413.719721
4401.853171
4450.125338
4408.574446
4438.510989
4446.621612
4440.723297
4414.458977
4417.817612
4441.701475
4441.154762
4399.780258
4437.191372
4409.418826
4414.239308
4429.174056
4432.158208
4415.812950
4446.902906
4451.710784
4410.587839
4393.748842
4410.289211
4416.342282
4443.825305
4408.880321
4404.166802
4428.700580
4392.232506
4416.833022
4422.014043
4429.477139
4389.438727
4442.259430
4370.721066
4397.431670
4487.063565
4472.148533
4414.893122
4427.273293
4432.236342
4400.278276
4457.057840
4448.165346
4447.738790
4423.106738
4426.308916
4411.299747
4418.743955
4469.154220
4420.331599
4432.725861
4444.531610
4438.436971
4464.627124
4390.662046
4447.697362
4426.315395
4451.333340
4429.998377
4440.656652
4424.057256
4437.551080
4444.368482
4477.751732
4482.634405
4437.473488
4375.460129
4427.051197
4396.932530
4427.846095
4430.700518
4438.153848
4426.747574
4383.713243
4435.760907
4421.502842
4427.264094
4444.868368
4440.237857
4422.667553
4424.987774
4408.562334
4431.213528
4425.530563
4434.127019
4436.822196
4403.143388
4444.112361
4442.853281
4427.649780
4435.742528
4421.859472
4406.219049
4444.163560
4454.561502
4419.792779
4510.217392
4374.918148
4437.817191
4428.807491
4432.453359
4420.528174
4436.970167
4411.891987
4443.010509
4456.345277
4409.501927
4437.706518
4433.939455
4424.871777
4407.367065
4450.365593
4409.466523
4429.395682
4413.970729
4439.936201
4400.160259
4421.840844
4435.152896
4445.337614
4439.353821
4408.507201
4479.825533
4437.640100
4461.114776
4428.798223
4454.888199
4431.301413
4344.440181
4394.514670
4408.380473
4426.222439
4416.440394
4428.827647
4427.351455
4428.676200
4369.250907
4444.970732
4447.352934
4404.151805
4403.618886
4434.633919
4423.644563
4426.985385
4416.496513
4435.738146
4416.582995
4474.022974
4381.498554
4425.756307
4437.283884
4426.105225
4424.519852
4440.032628
4385.703243
4422.718445
4470.705130
4430.108261
4380.962160
4453.736089
4475.952663
4412.882259
4420.932824
4437.795222
4428.017064
4422.468263
4426.137983
4440.056317
4458.011744
4439.914001
4457.515667
4422.471319
4401.756283
4438.254711
4450.444723
4428.441182
4402.356860
4451.202120
4397.837026
4409.452882
4378.055730
4425.760139
4434.462893
4435.007709
4421.850477
4440.178927
4422.966088
4412.649169
4392.893900
4390.782021
4474.544293
4384.668187
4425.683835
4427.778004
4426.782449
4415.195040
4431.553109
4425.655435
4404.230893
4415.354180
4391.553488
4437.940989
4409.933173
4408.265322
4433.603573
4432.814555
4433.588553
4404.424536
4436.400879
4413.059927
4445.382314
4466.532224
4448.523727
4437.335902
4430.648685
4449.437755
4439.717849
4483.389920
4442.224977
4449.085565
4459.445503
4458.844705
4418.046659
4399.096675
4423.342716
4427.127988
4436.793313
4432.935427
4417.992383
4438.970082
4433.914961
4413.249238
4422.318465
4420.392072
4457.149770
4409.660883
4414.593711
4412.037685
4439.513578
4420.823940
4414.193386
4412.930686
4379.382389
4475.470896
4450.868511
4438.116605
4391.772519
4420.737678
4389.532147
4451.036198
4421.961318
4391.966746
4420.898874
4405.554036
4409.688960
4425.878700
4428.351132
4425.230932
4414.363804
4425.598413
4441.234439
4422.631808
4427.752229
4416.839982
4443.516702
4425.800820
4442.590307
4410.873216
4445.493836
4467.323193
4399.594566
4393.555113
4474.029387
4386.996380
4439.805214
4416.704789
4402.509131
4437.767967
4417.537886
4445.313300
4437.908541
4446.863084
4392.312517
4417.187622
4431.032493
4459.786054
4428.870829
4436.622370
4419.403494
4452.380632
4430.480839
4461.252603
4467.002022
4403.493103
4419.530324
4440.268973
4430.625730
4433.456029
4422.257629
4440.611733
4452.970945
4419.274761
4433.414595
4469.100664
4422.805163
4325.297856
4402.628590
4422.662517
4420.338250
4421.243666
4425.788953
4463.807124
4418.476176
4394.254572
4421.378106
4405.299031
4370.732259
4428.886229
4432.362335
4417.860360
4417.091183
4412.018266
4412.231345
4430.248919
4425.568679
4416.689615
4407.018579
4426.882428
4433.144702
4442.598188
4402.817835
4470.194847
4381.063962
4407.292246
4464.558550
4382.388800
4545.054901
4388.931512
4429.201413
4425.500989
4431.414318
4448.197814
4443.136345
4438.002790
4440.148233
4481.426587
4431.268514
4426.678958
4431.889815
4434.034469
4432.639664
4438.876294
4419.613552
4426.813410
4401.640458
4437.187950
4446.960897
4420.267560
4408.129511
4448.510369
4406.211292
4457.981111
4442.271455
4458.247579
4432.872988
4408.838316
4425.188586
4425.732441
4488.662938
4456.837746
4461.516053
4432.540864
4458.557209
4450.336186
4460.918294
4446.671456
4453.493729
4432.901391
4478.380758
4434.977935
4428.763458
4421.919190
4431.726951
4417.208204
4445.751240
4425.733070
4428.296645
4421.443498
4448.167544
4426.023302
4429.996112
4433.414527
4457.046367
4389.721919
4446.766350
4403.666109
4410.158106
4428.732799
4447.808897
4559.247030
4460.792688
4448.875925
4469.425758
4448.870760
4437.868939
4434.800002
4381.306374
4356.438602
4335.856860
4390.256329
4427.818438
4435.845032
4427.945327
4432.027243
4429.306073
4434.549001
4448.161883
4430.771383
4401.158318
4466.984447
4427.460353
4457.781884
4436.469959
4429.571022
4441.322057
4425.730716
4403.260862
4438.812068
4409.938957
4426.398914
4449.513956
4418.628887
4445.070992
4424.276046
4458.561982
4406.530345
4348.742343
4431.712870
4479.737982
4421.761122
4454.038000
4434.933920
4426.125291
4424.413399
4419.563957
4432.290943
4403.867099
4418.841957
4416.400971
4423.458265
4398.774002
4402.747695
4439.366054
4399.919589
4407.158424
4431.223545
4442.124383
4448.774199
4440.103815
4399.749834
4414.396276
4429.662551
4440.021157
4369.895728
4471.194448
4398.756435
4417.008394
4443.237779
4445.694796
4476.945481
4398.940997
4418.348313
4430.812957
4415.703554
4427.569613
4435.923807
4437.069255
4422.844610
4433.035575
4434.281410
4423.011885
4449.078170
4418.514070
4414.511009
4445.810955
4438.127901
4438.134655
4440.586175
4418.934359
4455.833911
4478.074987
4381.264078
4429.128785
4431.747220
4435.977860
4403.748084
4437.389565
4437.173569
4446.769998
4438.992043
4445.071325
4421.234185
4391.683520
4420.142315
4444.050047
4425.039430
4412.387732
4428.384555
4421.424191
4426.612576
4436.801519
4433.212062
4449.907464
4420.421155
4442.451420
4408.395855
4440.669837
4425.966320
4437.077052
4445.439224
4461.722954