# vtk DataFile Version 2.0
mfree iwf
ASCII

DATASET UNSTRUCTURED_GRID
POINTS 6231 float
0.000000 0.000300 0.000000
0.000000 0.000310 0.000000
0.000000 0.000320 0.000000
0.000000 0.000330 0.000000
0.000000 0.000340 0.000000
0.000000 0.000350 0.000000
0.000000 0.000360 0.000000
0.000001 0.000370 0.000000
0.000001 0.000380 0.000000
0.000001 0.000390 0.000000
0.000001 0.000400 0.000000
0.000001 0.000410 0.000000
0.000001 0.000420 0.000000
0.000001 0.000430 0.000000
0.000001 0.000440 0.000000
0.000002 0.000450 0.000000
0.000002 0.000460 0.000000
0.000002 0.000471 0.000000
0.000002 0.000480 0.000000
0.000002 0.000492 0.000000
0.000006 0.000501 0.000000
0.000851 0.000977 0.000000
0.000923 0.001016 0.000000
0.000868 0.000985 0.000000
0.000935 0.001021 0.000000
0.000957 0.001026 0.000000
0.001006 0.001032 0.000000
0.001014 0.001031 0.000000
0.001026 0.001026 0.000000
0.001039 0.001024 0.000000
0.001069 0.001025 0.000000
0.000010 0.000300 0.000000
0.000010 0.000310 0.000000
0.000010 0.000320 0.000000
0.000010 0.000330 0.000000
0.000010 0.000340 0.000000
0.000010 0.000350 0.000000
0.000010 0.000360 0.000000
0.000011 0.000370 0.000000
0.000011 0.000380 0.000000
0.000011 0.000390 0.000000
0.000011 0.000400 0.000000
0.000011 0.000410 0.000000
0.000011 0.000420 0.000000
0.000011 0.000430 0.000000
0.000011 0.000440 0.000000
0.000011 0.000450 0.000000
0.000012 0.000460 0.000000
0.000011 0.000472 0.000000
0.000013 0.000478 0.000000
0.000009 0.000492 0.000000
0.000013 0.000498 0.000000
0.000976 0.001024 0.000000
0.000991 0.001025 0.000000
0.000999 0.001026 0.000000
0.001005 0.001024 0.000000
0.001022 0.001018 0.000000
0.001033 0.001017 0.000000
0.001047 0.001013 0.000000
0.001058 0.001015 0.000000
0.001064 0.001012 0.000000
0.001066 0.001021 0.000000
0.000020 0.000300 0.000000
0.000020 0.000310 0.000000
0.000020 0.000320 0.000000
0.000020 0.000330 0.000000
0.000021 0.000340 0.000000
0.000020 0.000350 0.000000
0.000021 0.000360 0.000000
0.000021 0.000370 0.000000
0.000020 0.000380 0.000000
0.000021 0.000390 0.000000
0.000021 0.000400 0.000000
0.000022 0.000410 0.000000
0.000021 0.000420 0.000000
0.000022 0.000431 0.000000
0.000021 0.000440 0.000000
0.000023 0.000451 0.000000
0.000021 0.000460 0.000000
0.000022 0.000470 0.000000
0.000021 0.000482 0.000000
0.000024 0.000494 0.000000
0.000020 0.000497 0.000000
0.000943 0.001012 0.000000
0.000972 0.001019 0.000000
0.000983 0.001021 0.000000
0.000987 0.001019 0.000000
0.000997 0.001012 0.000000
0.001012 0.001016 0.000000
0.001039 0.001010 0.000000
0.001054 0.001010 0.000000
0.001061 0.001001 0.000000
0.001068 0.000999 0.000000
0.000030 0.000300 0.000000
0.000030 0.000310 0.000000
0.000030 0.000320 0.000000
0.000030 0.000330 0.000000
0.000030 0.000340 0.000000
0.000030 0.000350 0.000000
0.000031 0.000360 0.000000
0.000030 0.000370 0.000000
0.000032 0.000380 0.000000
0.000030 0.000390 0.000000
0.000031 0.000400 0.000000
0.000031 0.000411 0.000000
0.000031 0.000420 0.000000
0.000031 0.000430 0.000000
0.000031 0.000440 0.000000
0.000031 0.000450 0.000000
0.000031 0.000459 0.000000
0.000036 0.000473 0.000000
0.000029 0.000478 0.000000
0.000032 0.000488 0.000000
0.000032 0.000497 0.000000
0.000063 0.000500 0.000000
0.000964 0.001014 0.000000
0.000980 0.001005 0.000000
0.001008 0.001008 0.000000
0.001017 0.001000 0.000000
0.001023 0.001011 0.000000
0.001027 0.001004 0.000000
0.001038 0.001001 0.000000
0.001045 0.001000 0.000000
0.001067 0.000991 0.000000
0.000040 0.000300 0.000000
0.000040 0.000310 0.000000
0.000040 0.000320 0.000000
0.000040 0.000331 0.000000
0.000040 0.000340 0.000000
0.000040 0.000349 0.000000
0.000040 0.000359 0.000000
0.000040 0.000369 0.000000
0.000041 0.000380 0.000000
0.000040 0.000390 0.000000
0.000042 0.000400 0.000000
0.000041 0.000410 0.000000
0.000042 0.000420 0.000000
0.000041 0.000431 0.000000
0.000042 0.000439 0.000000
0.000043 0.000450 0.000000
0.000042 0.000460 0.000000
0.000037 0.000469 0.000000
0.000045 0.000477 0.000000
0.000043 0.000496 0.000000
0.000040 0.000498 0.000000
0.000755 0.000832 0.000000
0.000972 0.001005 0.000000
0.000990 0.001005 0.000000
0.000998 0.000999 0.000000
0.001006 0.001005 0.000000
0.001027 0.000995 0.000000
0.001049 0.000989 0.000000
0.001047 0.000980 0.000000
0.001057 0.000993 0.000000
0.001065 0.000981 0.000000
0.000050 0.000300 0.000000
0.000050 0.000310 0.000000
0.000050 0.000320 0.000000
0.000050 0.000329 0.000000
0.000050 0.000340 0.000000
0.000051 0.000351 0.000000
0.000050 0.000361 0.000000
0.000052 0.000371 0.000000
0.000050 0.000380 0.000000
0.000051 0.000390 0.000000
0.000051 0.000400 0.000000
0.000050 0.000411 0.000000
0.000052 0.000420 0.000000
0.000051 0.000430 0.000000
0.000053 0.000440 0.000000
0.000048 0.000451 0.000000
0.000054 0.000458 0.000000
0.000053 0.000469 0.000000
0.000056 0.000483 0.000000
0.000048 0.000488 0.000000
0.000050 0.000498 0.000000
0.000962 0.001020 0.000000
0.000918 0.001007 0.000000
0.000985 0.000998 0.000000
0.001000 0.000986 0.000000
0.001013 0.000990 0.000000
0.001031 0.000987 0.000000
0.001022 0.000983 0.000000
0.001039 0.000989 0.000000
0.001055 0.000981 0.000000
0.001061 0.000971 0.000000
0.000060 0.000300 0.000000
0.000060 0.000310 0.000000
0.000060 0.000320 0.000000
0.000061 0.000332 0.000000
0.000061 0.000339 0.000000
0.000060 0.000349 0.000000
0.000061 0.000358 0.000000
0.000060 0.000368 0.000000
0.000061 0.000380 0.000000
0.000060 0.000391 0.000000
0.000062 0.000400 0.000000
0.000060 0.000409 0.000000
0.000063 0.000419 0.000000
0.000059 0.000431 0.000000
0.000065 0.000440 0.000000
0.000060 0.000449 0.000000
0.000065 0.000460 0.000000
0.000055 0.000472 0.000000
0.000064 0.000475 0.000000
0.000068 0.000486 0.000000
0.000058 0.000496 0.000000
0.000951 0.001019 0.000000
0.000963 0.001005 0.000000
0.000979 0.000988 0.000000
0.000992 0.000990 0.000000
0.001009 0.000978 0.000000
0.001013 0.000972 0.000000
0.001041 0.000971 0.000000
0.001032 0.000978 0.000000
0.001051 0.000970 0.000000
0.001059 0.000962 0.000000
0.000070 0.000300 0.000000
0.000070 0.000310 0.000000
0.000070 0.000319 0.000000
0.000070 0.000328 0.000000
0.000071 0.000340 0.000000
0.000070 0.000352 0.000000
0.000072 0.000359 0.000000
0.000069 0.000373 0.000000
0.000081 0.000376 0.000000
0.000070 0.000390 0.000000
0.000073 0.000400 0.000000
0.000069 0.000411 0.000000
0.000075 0.000421 0.000000
0.000068 0.000429 0.000000
0.000075 0.000438 0.000000
0.000067 0.000451 0.000000
0.000077 0.000458 0.000000
0.000073 0.000470 0.000000
0.000076 0.000486 0.000000
0.000068 0.000495 0.000000
0.000076 0.000496 0.000000
0.000747 0.000810 0.000000
0.000952 0.001006 0.000000
0.000972 0.000995 0.000000
0.000993 0.000967 0.000000
0.001010 0.000989 0.000000
0.001023 0.000972 0.000000
0.001033 0.000970 0.000000
0.001027 0.000961 0.000000
0.001047 0.000960 0.000000
0.001055 0.000952 0.000000
0.000080 0.000300 0.000000
0.000080 0.000310 0.000000
0.000081 0.000321 0.000000
0.000079 0.000331 0.000000
0.000082 0.000340 0.000000
0.000079 0.000349 0.000000
0.000083 0.000361 0.000000
0.000073 0.000369 0.000000
0.000075 0.000383 0.000000
0.000080 0.000392 0.000000
0.000089 0.000397 0.000000
0.000078 0.000410 0.000000
0.000085 0.000416 0.000000
0.000079 0.000431 0.000000
0.000086 0.000445 0.000000
0.000077 0.000448 0.000000
0.000085 0.000463 0.000000
0.000074 0.000470 0.000000
0.000087 0.000473 0.000000
0.000085 0.000482 0.000000
0.000084 0.000495 0.000000
0.000941 0.001017 0.000000
0.000913 0.001012 0.000000
0.000977 0.000977 0.000000
0.000988 0.000983 0.000000
0.000999 0.000975 0.000000
0.001007 0.000963 0.000000
0.001017 0.000962 0.000000
0.001037 0.000958 0.000000
0.001044 0.000951 0.000000
0.001052 0.000943 0.000000
0.000090 0.000300 0.000000
0.000090 0.000310 0.000000
0.000090 0.000319 0.000000
0.000090 0.000329 0.000000
0.000091 0.000340 0.000000
0.000089 0.000350 0.000000
0.000092 0.000361 0.000000
0.000088 0.000369 0.000000
0.000093 0.000379 0.000000
0.000090 0.000387 0.000000
0.000085 0.000404 0.000000
0.000093 0.000410 0.000000
0.000087 0.000425 0.000000
0.000096 0.000426 0.000000
0.000089 0.000435 0.000000
0.000097 0.000456 0.000000
0.000087 0.000453 0.000000
0.000097 0.000471 0.000000
0.000106 0.000480 0.000000
0.000089 0.000494 0.000000
0.000094 0.000495 0.000000
0.000762 0.000848 0.000000
0.000946 0.001001 0.000000
0.000934 0.001007 0.000000
0.000965 0.000995 0.000000
0.000984 0.000964 0.000000
0.001011 0.000954 0.000000
0.001025 0.000953 0.000000
0.001031 0.000947 0.000000
0.001041 0.000942 0.000000
0.001048 0.000934 0.000000
0.000100 0.000300 0.000000
0.000100 0.000310 0.000000
0.000101 0.000321 0.000000
0.000099 0.000331 0.000000
0.000101 0.000339 0.000000
0.000100 0.000349 0.000000
0.000100 0.000359 0.000000
0.000101 0.000370 0.000000
0.000100 0.000381 0.000000
0.000100 0.000391 0.000000
0.000100 0.000400 0.000000
0.000103 0.000406 0.000000
0.000101 0.000418 0.000000
0.000100 0.000436 0.000000
0.000109 0.000443 0.000000
0.000096 0.000445 0.000000
0.000107 0.000460 0.000000
0.000098 0.000467 0.000000
0.000094 0.000481 0.000000
0.000106 0.000491 0.000000
0.000101 0.000494 0.000000
0.000873 0.000989 0.000000
0.000882 0.000994 0.000000
0.000907 0.001009 0.000000
0.000988 0.000974 0.000000
0.001000 0.000960 0.000000
0.001001 0.000949 0.000000
0.001021 0.000944 0.000000
0.001013 0.000940 0.000000
0.001035 0.000936 0.000000
0.001043 0.000926 0.000000
0.000110 0.000300 0.000000
0.000110 0.000310 0.000000
0.000110 0.000319 0.000000
0.000110 0.000329 0.000000
0.000111 0.000341 0.000000
0.000109 0.000351 0.000000
0.000111 0.000360 0.000000
0.000110 0.000371 0.000000
0.000111 0.000378 0.000000
0.000111 0.000389 0.000000
0.000113 0.000400 0.000000
0.000110 0.000413 0.000000
0.000116 0.000422 0.000000
0.000106 0.000427 0.000000
0.000112 0.000432 0.000000
0.000107 0.000449 0.000000
0.000115 0.000462 0.000000
0.000111 0.000470 0.000000
0.000116 0.000480 0.000000
0.000111 0.000493 0.000000
0.000119 0.000492 0.000000
0.000821 0.000943 0.000000
0.000771 0.000869 0.000000
0.000940 0.000996 0.000000
0.000961 0.000984 0.000000
0.000951 0.000982 0.000000
[...]
POINT_DATA 6231
SCALARS density float 1
LOOKUP_TABLE default
4412.991108
4427.898187
4423.616473
4421.234640
4421.724890
4421.431406
4424.097810
4426.112968
4429.025930
4429.744821
4426.456054
4430.083182
4429.473470
4432.070038
4431.363689
4439.315550
4423.028127
4432.511234
4413.477009
4424.032024
4411.287893
4423.157160
4426.600870
4430.594364
4441.556943
4418.192312
4398.480013
4426.479943
4450.370207
4451.902716
4416.012402
4419.324476
4425.617301
4422.553611
4427.781499
4431.117988
4431.164034
4427.002335
4432.116925
4428.107013
4429.962687
4426.759317
4435.124411
4423.823715
4432.439789
4414.517835
4429.112008
4411.887474
4439.742262
4464.199556
4459.862901
4416.150798
4411.567727
4414.781288
4437.497240
4509.233435
4399.827489
4400.982788
4425.756487
4398.941698
4452.884329
4439.227749
4418.997039
4425.261663
4430.141535
4426.749428
4421.287198
4425.289446
4421.676801
4429.448844
4413.850289
4434.003745
4422.990196
4432.257900
4420.931916
4443.024284
4420.735651
4469.517121
4401.242593
4453.853230
4350.376416
4451.453211
4421.246938
4419.185174
4433.971803
4414.160942
4498.821539
4331.832516
4362.298380
4414.698109
4422.233671
4425.915079
4401.567352
4426.555437
4432.114000
4425.420319
4426.644892
4434.661172
4434.103383
4430.706815
4438.407677
4429.815373
4442.383648
4410.932926
4437.859514
4422.531795
4438.109001
4404.018261
4429.446411
4397.463752
4453.126780
4374.532457
4550.390766
4372.611920
4432.742060
4457.275790
4433.960756
4481.355476
4343.123263
4486.308342
4462.979650
4417.816519
4478.754656
4431.356607
4427.540155
4427.027913
4428.184947
4438.214177
4429.230482
4427.329030
4430.243170
4424.723671
4421.405609
4419.885473
4423.032934
4447.498069
4406.246525
4444.515423
4421.474427
4453.569720
4388.164424
4507.805436
4308.389233
4419.362019
4385.385610
4430.931383
4403.376560
4433.986223
4404.534473
4484.202814
4425.482462
4410.590376
4481.156499
4443.521964
4412.577221
4428.039839
4435.283967
4433.347121
4430.713803
4427.729100
4437.884533
4428.730614
4444.699798
4434.236414
4440.331847
4424.596035
4425.674558
4414.898755
4456.045541
4369.132333
4477.334529
4362.678523
4471.398201
4360.182497
4538.254562
4381.768365
4443.513560
4429.927048
4467.499738
4424.505426
4453.518487
4452.932165
4387.057722
4396.364324
4422.531670
4418.872446
4435.847666
4436.511658
4417.563133
4440.467539
4436.687077
4440.316490
4414.491072
4426.305710
4389.502454
4438.514207
4414.055668
4445.412528
4415.939786
4432.093411
4421.364127
4464.646422
4395.832351
4522.682264
4378.182694
4478.334592
4432.916659
4415.873569
4398.371794
4400.316555
4452.330427
4451.101387
4426.013111
4409.982140
4416.387329
4421.172228
4430.723063
4428.452681
4422.651711
4435.768458
4438.447741
4399.313995
4441.830600
4416.968607
4440.962548
4396.201672
4461.811771
4391.840231
4432.426837
4406.719390
4438.179113
4432.249434
4458.901636
4442.636491
4452.946519
4448.951644
4414.647054
4390.629340
4436.271073
4460.553668
4435.688938
4422.323443
4416.441594
4417.464965
4455.163722
4439.756963
4442.316116
4414.539477
4428.264862
4432.548866
4428.017981
4408.935899
4436.317750
4443.630730
4416.321420
4453.386998
4421.777262
4429.245629
4410.053022
4438.714844
4429.001219
4440.352441
4461.794281
4387.180190
4447.743675
4453.056981
4364.852980
4462.545530
4418.095691
4433.226914
4414.264679
4425.670242
4449.023474
4387.167344
4445.946640
4435.302749
4405.409720
4434.133513
4438.776391
4433.526216
4432.785347
4416.934920
4426.758602
4434.204744
4409.519193
4447.041002
4435.786560
4454.301694
4442.757156
4443.770227
4394.005270
4417.166838
4459.510294
4420.737122
4383.407561
4441.733406
4438.783229
4431.274249
4429.616991
4416.524783
4430.524812
4426.072992
4425.843931
4489.451652
4409.167627
4386.281968
4437.546036
4444.373837
4427.658569
4412.354740
4427.617117
4423.445489
4435.091077
4438.719372
4416.983373
4437.138614
4437.505225
4410.195598
4425.319979
4406.749898
4440.411257
4448.215325
4417.501464
4386.639667
4449.566330
4449.988917
4406.796228
4469.822218
4410.454405
4437.474397
4418.687558
4421.568348
4430.672686
4422.124601
4452.748101
4462.437444
4380.320235
4403.286022
4468.094280
4452.601813
4423.879399
4423.464780
4435.555618
4439.133154
4407.960400
4439.260523
4431.663734
4410.483575
4445.557498
4438.739693
4442.390593
4396.191044
4438.353653
4405.308658
4452.543170
4417.138893
4437.789508
4478.526714
4388.642601
4454.588589
4407.263186
4413.184768
4439.167411
4435.816975
4438.742019
4392.922982
4442.172931
4450.442263
4465.433787
4409.077822
4422.298211
4454.305320
4430.512496
4430.531933
4414.524004
4442.256466
4442.441125
4407.127932
4429.333176
4438.795376
4389.215700
4458.444064
4419.123714
4423.528108
4453.121751
4449.193554
4416.585476
4379.527693
4429.203565
4388.311178
4436.889458
4433.750982
4394.975728
4436.562172
4419.752432
4431.256408
4452.678529
4454.130040
4418.731154
4338.993141
4459.616483
4386.911227
4416.072669
4434.224438
4436.226048
4429.649768
4435.954128
4406.084719
4456.039160
4438.912188
4410.417729
4458.195737
4426.438264
4417.801924
4389.140037
4420.864917
4446.370065
4403.724332
4463.205918
4398.772553
4463.002600
4485.249795
4419.268806
4441.694666
4434.830605
4421.475176
4423.133620
4429.452119
4429.675913
4446.729446
4466.718927
4474.172518
4499.679705
4454.059981
4433.549027
4434.398927
4426.902551
4423.498405
4439.054471
4426.404856
4412.824940
4416.915058
4449.904455
4384.774926
4439.862950
4438.272033
4450.466604
4415.188831
4438.200216
4372.709181
4421.114705
4490.664535
4575.342005
4387.148560
4373.903550
4422.670307
4419.427215
4445.956541
4443.480222
4371.843009
4458.226574
4423.077149
4401.265124
4403.196689
4450.282243
4432.410735
4431.862067
4438.637837
4425.195042
4431.522443
4397.124857
4447.032774
4455.913594
4404.476392
4427.319110
4434.786622
4431.124460
4432.337440
4413.488096
4459.280326
4410.371456
4502.479127
4350.094045
4338.339197
4475.128882
4392.903395
4412.110083
4440.971697
4434.539647
4484.090515
4444.945909
4419.279826
4432.317217
4399.506754
4424.477203
4411.546630
4435.886115
4426.306262
4435.205075
4422.702658
4432.778820
4449.269868
4400.839921
4407.612817
4407.089804
4465.933590
4424.361421
4393.141987
4437.558377
4415.411324
4431.433943
4444.456299
4407.788878
4484.471036
4473.628235
4420.747411
4406.473271
4427.686817
4452.779207
4405.066298
4374.317525
4474.452911
4458.321406
4421.442841
4403.238772
4431.720014
4429.024693
4436.689918
4425.075625
4431.984574
4442.501984
4417.033019
4429.599804
4428.043408
4441.238913
4434.187744
4404.078210
4458.014544
4413.442303
4444.944639
4439.730051
4417.144928
4428.680938
4387.951957
4487.880950
4372.319144
4367.744731
4422.794650
4420.924629
4439.789938
4444.410643
4398.996275
4454.232998
4445.550455
4416.440763
4462.676585
4432.121997
4439.564722
4424.636526
4440.388780
4426.662421
4428.194251
4438.926988
4421.282765
4438.979079
4398.751215
4442.013295
4456.851563
4405.135687
4436.342109
4402.716690
4443.026356
4410.218784
4456.456813
4365.372668
4452.239428
4408.669836
4441.391339
4388.714962
4428.334432
4434.261939
4439.361823
4455.060374
4403.212576
4468.468950
4458.663177
4414.639460
4410.282766
4419.904765
4430.929867
4426.558382
4425.449856
4416.954349
4449.247787
4417.591523
4432.788222
4449.917150
4413.916029
4399.834952
4434.338473
4442.973071
4412.140957
4450.030351
4389.548276
4450.039404
4370.115436
4461.327879
4435.696126
4584.153080
4372.597570
4477.444720
4419.963459
4439.264999
4438.223552
4388.421329
4455.585455
4394.319641
4408.820830
4422.277322
4421.275980
4436.475901
4426.455297
4439.242254
4444.530740
4406.818130
4445.954087
4412.611933
4422.626688
4432.607856
4430.006382
4448.813839
4411.866891
4409.198367
4436.843103
4434.774850
4472.435660
4455.052638
4484.971585
4360.006095
4373.289261
4435.027063
4411.499167
4426.895168
4462.554175
4414.165623
4405.195657
4427.201811
4447.988597
4459.403926
4416.764724
4407.191940
4432.893628
4430.925359
4421.876404
4427.099051
4432.208214
4443.534650
4411.648663
4433.686638
4415.425264
4421.610290
4406.083525
4438.506880
4443.553328
4449.569820
4392.390902
4443.192821
4412.139735
4431.925147
4401.548341
4467.767580
4414.846232
4447.940098
4417.508434
4429.842851
4435.386788
4411.889014
4378.818342
4449.500134
4355.960101
4423.617117
4444.458320
4425.130962
4435.582980
4433.913344
4434.239154
4429.295120
4406.883694
4434.125057
4444.729526
4402.305669
4449.212143
4408.468197
4441.531166
4467.238905
4382.632358
4413.868839
4461.488551
4402.180555
4400.195074
4435.446594
4452.115953
4424.604014
4424.214960
4419.059712
4458.571795
4424.238551
4452.840464
4477.268103
4354.537524
4485.059089
4379.128867
4423.593045
4429.268764
4433.054027
4422.264607
4427.890379
4425.235591
4445.385494
4427.483451
4402.692560
4419.584081
4437.587527
4403.011367
4419.676074
4428.943231
4399.545951
4433.409907
4421.388824
4423.577218
4445.902535
4394.115192
4435.870204
4425.679907
4411.079843
4448.236359
4393.248285
4442.629232
4462.581998
4426.408751
4372.643499
4439.412188
4441.571504
4445.940057
4427.685277
4433.617712
4422.155131
4442.319232
4421.117673
4421.776165
4405.415823
4446.175309
4433.897080
4406.942581
4424.234238
4436.364519
4418.756173
4419.670756
4417.991304
4452.255413
4394.201463
4455.190929
4439.421272
4488.451928
4409.369858
4418.998789
4453.691377
4417.842347
4461.288588
4439.592368
4452.295059
4447.251409
4431.604595
4424.209647
4436.043307
4427.302774
4439.362559
4418.560394
4435.786574
4415.607943
4438.839947
4440.861009
4400.087587
4422.746363
4427.311470
4456.364446
4437.350101
4403.541861
4429.396020
4456.929408
4442.129751
4423.156599
4435.572688
4362.020933
4422.146079
4429.340421
4412.017809
4448.100620
4429.074585
4419.857965
4413.302514
4441.075995
4420.378749
4430.102247
4408.213298
4419.724583
4426.298857
4436.639956
4417.298421
4434.742173
4431.624755
4418.751745
4411.281892
4439.211164
4437.113206
4437.943463
4386.097395
4456.928462
4416.079997
4408.075163
4399.371064
4457.481345
4423.634192
4468.332023
4411.068369
4434.682375
4421.794877
4437.546151
4425.216060
4378.536848
4427.399345
4432.139152
4427.337313
4417.302452
4485.160090
4416.758906
4444.113680
4426.616260
4432.947109
4429.259027
4430.150167
4421.548539
4444.598303
4421.820486
4435.712416
4394.549183
4442.113775
4446.615306
4397.397289
4440.800774
4445.711524
4426.967278
4466.880875
4401.153417
4467.704337
4419.899496
4440.350070
4410.142853
4427.293020
4429.718003
4432.933286
4422.108417
4430.240033
4421.410446
4436.045601
4397.143329
4395.277332
4429.218329
4431.900877
4425.190787
4427.206439
4436.738967
4423.773264
4439.605712
4416.781549
4434.586351
4437.936434
4404.908646
4420.857821
4447.102296
4411.317712
4439.867219
4377.805590
4453.720648
4394.097193
4449.368974
4418.348298
4430.691669
4404.010269
4440.284590
4410.583087
4427.143020
4472.670270
4388.001157
4426.395666
4437.622575
4388.824293
4438.030519
4403.251274
4426.133602
4429.555809
4430.067993
4427.857197
4430.608211
4418.078919
4441.470567
4418.658908
4431.698480
4440.349123
4407.339279
4446.178603
4429.633633
4394.420373
4441.825035
4443.829699
4410.250257
4382.375668
4373.679380
4463.153321
4433.542837
4407.155434
4416.459742
4405.712289
4461.417523
4446.544053
4417.203049
4467.877002
4431.150706
4426.610743
4451.840258
4432.393612
4432.997966
4426.958974
4423.582519
4443.565946
4415.700256
4440.710577
4431.806283
4401.155485
4435.885552
4442.318947
4392.613986
4442.943304
4450.831310
4410.771161
4402.796017
4422.358650
4495.399548
4467.901151
4435.024167
4440.504724
4439.474296
4455.259487
4413.197865
4437.003730
4436.809968
4431.957868
4432.647699
4434.105532
4404.177784
4432.229223
4431.391158
4426.235256
4436.623635
4439.159697
4424.045550
4441.147674
4408.443531
4440.217404
4450.186170
4406.808885
4444.037020
4443.004091
4431.886655
4409.485036
4449.172955
4455.824316
4391.215861
4449.496640
4390.604673
4376.938991
4428.115679
4432.459271
4423.516500
4373.528758
4467.598370
4404.340946
4424.112195
4406.755172
4471.153280
4355.379552
4417.480853
4434.225304
4432.255233
4425.942700
4429.345943
4419.789509
4452.618815
4429.114404
4408.111066
4421.786000
4451.975810
4416.368695
4415.340115
4422.920312
4457.079079
4423.645129
4421.877043
4405.871675
4391.958075
4468.431105
4463.204115
4447.055105
4400.187575
4421.250649
4430.286323
4433.180107
4432.246681
4377.768213
4459.400930
4420.674342
4468.524032
4418.481053
4433.505818
4434.303260
4425.574502
4433.235168
4440.442162
4404.176553
4429.572266
4448.578624
4404.632097
4432.851399
4413.481070
4462.635997
4422.572348
4434.671161
4402.120311
4442.009058
4457.501629
4460.971835
4336.458820
4474.297021
4458.420079
4432.745903
4482.375839
4432.914034
4460.563232
4455.812262
4430.695625
4413.981110
4394.016549
4396.405965
4436.972930
4428.744182
4423.584626
4430.417598
4406.398045
4443.057433
4438.127668
4432.281606
4421.209087
4423.384255
4435.208568
4396.790194
4440.191209
4398.203820
4445.696187
4392.929029
4443.386722
4380.910076
4445.472663
4322.978453
4497.471665
4436.064875
4422.563457
4421.057712
4508.156941
4418.257313
4432.714879
4420.166584
4468.181559
4365.768602
4432.838939
4447.646225
4429.180122
4430.945894
4436.117234
4438.496804
4412.490625
4432.866465
4409.787536
4432.815971
4424.747220
4423.298958
4438.930166
4420.776625
4403.486627
4463.376191
4402.296032
4457.614345
4388.154541
4474.255876
4455.864232
4505.508986
4422.400761
4417.042877
4353.523656
4434.228949
4401.744759
4449.505100
4462.170074
4457.428236
4459.007514
4359.134735
4455.973653
4430.387445
4427.924198
4413.029784
4434.336980
4416.890698
4442.410632
4419.823307
4404.367925
4413.414798
4410.068155
4428.008929
4444.851245
4421.983955
4403.375126
4445.038344
4425.147258
4425.103169
4436.250917
4436.678210
4507.297368
4459.923609
4436.094791
4440.712564
4425.127591
4401.753169
4444.163658
4419.368116
4416.326823
4437.446757
4435.191708
4412.392765
4421.908004
4430.909858
4431.190271
4412.461686
4427.029136
4420.658701
4427.122099
4438.956000
4429.700455
4413.758359
4447.982394
4452.964592
4401.324850
4428.416231
4420.817192
4425.719001
4447.211330
4405.948184
4405.460030
4428.318956
4389.369894
4414.885492
4424.791904
4420.903710
4402.303363
4423.827020
4379.654772
4383.300225
4497.797062
4478.439674
4415.138858
4419.242311
4418.575906
4431.097182
4417.517922
4430.787223
4411.510474
4418.173503
4446.889814
4408.091948
4424.543113
4465.907392
4437.079607
4409.784493
4445.743057
4422.433748
4465.163659
4391.745919
4453.434790
4427.391682
4449.883057
4428.569516
4429.896435
4427.432913
4424.625637
4431.266466
4469.928502
4489.682661
4437.350330
4363.454368
4444.804637
4391.599612
4429.195329
4425.127901
4426.118109
4429.716155
4434.952909
4423.552395
4440.182935
4419.460853
4445.263098
4452.799905
4405.426141
4421.106959
4403.981526
4415.693713
4433.507904
4427.194898
4442.489988
4399.697168
4443.874943
4451.640465
4425.759532
4434.768772
4427.812122
4422.538654
4452.363247
4464.479481
4400.028983
4531.014923
4374.481756
4427.314667
4425.154832
4427.080780
4435.113089
4426.932636
4429.768377
4415.930038
4423.975610
4409.319265
4416.546545
4446.560726
4412.439253
4413.775647
4430.065055
4419.579201
4423.121625
4418.167740
4435.371548
4391.155243
4426.844098
4430.380116
4447.967915
4435.667198
4423.908258
4454.833333
4451.790500
4459.166016
4444.687506
4456.962058
4437.844542
4337.636686
4396.468346
4413.422269
4424.115951
4419.530036
4418.251081
4437.131361
4428.215067
4432.509100
4420.243041
4449.557826
4402.639897
4405.333754
4435.690147
4435.538612
4424.654055
4429.792691
4432.422538
4418.609804
4477.695789
4375.016642
4427.250491
4435.787976
4424.428625
4423.749309
4448.706815
4414.357831
4413.432515
4455.574973
4418.783276
4382.510816
4446.390547
4480.377143
4412.202763
4425.444833
4430.300784
4434.469737
4419.440045
4425.513156
4411.091991
4447.175257
4403.581988
4436.371859
4442.581984
4396.069964
4448.112750
4439.447278
4422.124338
4399.461077
4448.282291
4394.004908
4407.981472
4374.308918
4424.885594
4434.697718
4437.215099
4422.369678
4432.752504
4438.005129
4426.673644
4412.628236
4385.429679
4477.382909
4370.651204
4422.275589
4424.376784
4418.140972
4428.367636
4408.429007
4455.255379
4416.447956
4461.477103
4381.097542
4449.593950
4403.478299
4426.283721
4431.737802
4428.414881
4434.314536
4409.190132
4431.829390
4413.139558
4443.554689
4466.642425
4447.834072
4436.423779
4428.644116
4443.865709
4444.663528
4445.202172
4439.838910
4456.741293
4460.792371
4462.057432
4415.845690
4408.616925
4425.939904
4419.706600
4440.963006
4426.592230
4420.036124
4401.179761
4427.937673
4410.957289
4411.117273
4413.829898
4450.260760
4400.853522
4419.411873
4406.985357
4439.252101
4431.017098
4410.991707
4413.998842
4376.904956
4478.957411
4451.055403
4439.320339
4397.831038
4428.048572
4425.654606
4417.242863
4441.476628
4389.422383
4429.945370
4411.509961
4411.329452
4425.036480
4426.994064
4427.872912
4411.656271
4437.814310
4446.364846
4434.803412
4419.849966
4425.706402
4448.054769
4424.796110
4443.864124
4406.512508
4450.219761
4466.901977
4401.949147
4399.106423
4466.204133
4386.597750
4438.182130
4416.660614
4403.716118
4435.716047
4431.275838
4447.405153
4444.442278
4464.176652
4376.294650
4403.387988
4439.473953
4460.012839
4426.936066
4435.689669
4417.233676
4450.331880
4413.375049
4455.327734
4437.122271
4407.489816
4412.450196
4438.002171
4437.194902
4434.249306
4423.065637
4436.581395
4457.148342
4411.192233
4440.265629
4475.345465
4422.742737
4328.716811
4400.123158
4424.891154
4414.005748
4421.774419
4417.793012
4463.386296
4419.980775
4395.453114
4412.216631
4395.628961
4361.469660
4428.142781
4437.691347
4417.419975
4432.889003
4415.396465
4402.820698
4442.472291
4440.504129
4413.664389
4390.649768
4418.442286
4439.408871
4456.905177
4389.993967
4461.812161
4380.422752
4413.866994
4462.138535
4375.128349
4545.901389
4388.531834
4428.497670
4419.859324
4432.207612
4432.374067
4435.942973
4424.800418
4418.689090
4474.712117
4424.082608
4434.605276
4428.907270
4437.027796
4422.420477
4430.698614
4423.033063
4421.041589
4388.354409
4438.210835
4429.127347
4404.815343
4410.539453
4473.144883
4407.003930
4434.895832
4449.507961
4461.085285
4440.193623
4411.119772
4422.617161
4426.370630
4491.257834
4483.654566
4466.569610
4430.574759
4469.313936
4421.394012
4438.905048
4448.365151
4467.192773
4440.243521
4481.144285
4429.853673
4433.543567
4428.600233
4437.833320
4414.564358
4448.261448
4440.559981
4438.890252
4421.959225
4419.998572
4439.711878
4404.842787
4430.007259
4449.668064
4395.763669
4444.271162
4397.703376
4402.698219
4431.486187
4445.510390
4639.259801
4477.642256
4461.985327
4445.546033
4419.976516
4431.297591
4440.194994
4392.193293
4367.833062
4333.312379
4387.123835
4433.918127
4438.212668
4416.253926
4428.505983
4428.073462
4431.423820
4434.698077
4404.686804
4419.728048
4460.866409
4409.763662
4451.573029
4445.621044
4424.874704
4437.623341
4423.138696
4425.390163
4439.007563
4412.107355
4427.499025
4448.648238
4418.188721
4443.312935
4430.169457
4455.893070
4421.650680
4390.485325
4447.608263
4481.598132
4408.739518
4455.819881
4429.433074
4425.470553
4431.450407
4427.996460
4424.443892
4423.635037
4405.939575
4425.212230
4397.988120
4416.355252
4407.263862
4443.834696
4400.778341
4416.116807
4436.963030
4436.501554
4441.357263
4437.086936
4397.414185
4412.274834
4403.751022
4441.575635
4361.811456
4461.049722
4388.921008
4441.288999
4448.599451
4400.084102
4472.724221
4389.353236
4421.098050
4429.872637
4428.021611
4428.749290
4451.625439
4425.300229
4429.358362
4422.546733
4435.591268
4454.578239
4412.495850
4428.372505
4418.114644
4419.430516
4433.333228
4432.562034
4448.125450
4423.511698
4456.620119
4475.084634
4383.161972
4427.195641
4427.152147
4438.398611
4399.871691
4439.020289
4443.079549
4447.730269
4451.271904
4419.915891
4426.131805
4398.822634
4422.896097
4444.616613
4402.759140
4411.544339
4448.284578
4439.944557
4425.914234
4412.844205
4425.477357
4442.933265
4396.323274
4430.740962
4424.865748
4425.281798
4430.618464
4439.147706
4429.754328
4453.506692