# vtk DataFile Version 2.0
mfree iwf
ASCII

DATASET UNSTRUCTURED_GRID
POINTS 6231 float
0.000000 0.000300 0.000000
0.000000 0.000310 0.000000
0.000000 0.000320 0.000000
0.000000 0.000330 0.000000
0.000000 0.000340 0.000000
0.000000 0.000350 0.000000
0.000000 0.000360 0.000000
0.000001 0.000370 0.000000
0.000001 0.000380 0.000000
0.000001 0.000390 0.000000
0.000001 0.000400 0.000000
0.000001 0.000410 0.000000
0.000001 0.000420 0.000000
0.000001 0.000430 0.000000
0.000001 0.000440 0.000000
0.000001 0.000450 0.000000
0.000002 0.000460 0.000000
0.000002 0.000470 0.000000
0.000002 0.000480 0.000000
0.000002 0.000492 0.000000
0.000006 0.000501 0.000000
0.000830 0.000969 0.000000
0.000901 0.001008 0.000000
0.000847 0.000977 0.000000
0.000914 0.001014 0.000000
0.000935 0.001020 0.000000
0.000984 0.001026 0.000000
0.000992 0.001025 0.000000
0.001004 0.001020 0.000000
0.001017 0.001018 0.000000
0.001048 0.001020 0.000000
0.000010 0.000300 0.000000
0.000010 0.000310 0.000000
0.000010 0.000320 0.000000
0.000010 0.000330 0.000000
0.000010 0.000340 0.000000
0.000010 0.000350 0.000000
0.000010 0.000360 0.000000
0.000011 0.000370 0.000000
0.000011 0.000380 0.000000
0.000011 0.000390 0.000000
0.000011 0.000400 0.000000
0.000011 0.000410 0.000000
0.000011 0.000420 0.000000
0.000011 0.000430 0.000000
0.000011 0.000440 0.000000
0.000011 0.000450 0.000000
0.000012 0.000460 0.000000
0.000011 0.000472 0.000000
0.000013 0.000478 0.000000
0.000009 0.000492 0.000000
0.000013 0.000498 0.000000
0.000955 0.001018 0.000000
0.000970 0.001019 0.000000
0.000978 0.001020 0.000000
0.000984 0.001018 0.000000
0.001000 0.001012 0.000000
0.001011 0.001011 0.000000
0.001026 0.001008 0.000000
0.001036 0.001010 0.000000
0.001042 0.001008 0.000000
0.001045 0.001016 0.000000
0.000020 0.000300 0.000000
0.000020 0.000310 0.000000
0.000020 0.000320 0.000000
0.000020 0.000330 0.000000
0.000021 0.000340 0.000000
0.000020 0.000350 0.000000
0.000021 0.000360 0.000000
0.000020 0.000370 0.000000
0.000020 0.000380 0.000000
0.000021 0.000390 0.000000
0.000021 0.000400 0.000000
0.000022 0.000410 0.000000
0.000021 0.000420 0.000000
0.000022 0.000431 0.000000
0.000021 0.000440 0.000000
0.000023 0.000451 0.000000
0.000021 0.000460 0.000000
0.000022 0.000470 0.000000
0.000021 0.000482 0.000000
0.000024 0.000494 0.000000
0.000020 0.000497 0.000000
0.000922 0.001005 0.000000
0.000951 0.001013 0.000000
0.000961 0.001015 0.000000
0.000966 0.001013 0.000000
0.000976 0.001006 0.000000
0.000991 0.001010 0.000000
0.001017 0.001005 0.000000
0.001032 0.001005 0.000000
0.001040 0.000997 0.000000
0.001047 0.000994 0.000000
0.000030 0.000300 0.000000
0.000030 0.000310 0.000000
0.000030 0.000320 0.000000
0.000030 0.000330 0.000000
0.000030 0.000340 0.000000
0.000030 0.000350 0.000000
0.000031 0.000360 0.000000
0.000030 0.000370 0.000000
0.000032 0.000380 0.000000
0.000030 0.000390 0.000000
0.000031 0.000400 0.000000
0.000031 0.000411 0.000000
0.000031 0.000420 0.000000
0.000031 0.000430 0.000000
0.000031 0.000440 0.000000
0.000031 0.000450 0.000000
0.000031 0.000459 0.000000
0.000036 0.000473 0.000000
0.000029 0.000478 0.000000
0.000032 0.000488 0.000000
0.000032 0.000497 0.000000
0.000063 0.000500 0.000000
0.000943 0.001008 0.000000
0.000959 0.000999 0.000000
0.000986 0.001002 0.000000
0.000996 0.000994 0.000000
0.001001 0.001005 0.000000
0.001006 0.000998 0.000000
0.001017 0.000996 0.000000
0.001023 0.000995 0.000000
0.001046 0.000986 0.000000
0.000040 0.000300 0.000000
0.000040 0.000310 0.000000
0.000040 0.000320 0.000000
0.000040 0.000331 0.000000
0.000040 0.000340 0.000000
0.000041 0.000349 0.000000
0.000040 0.000360 0.000000
0.000040 0.000370 0.000000
0.000041 0.000380 0.000000
0.000040 0.000390 0.000000
0.000042 0.000400 0.000000
0.000041 0.000410 0.000000
0.000042 0.000420 0.000000
0.000041 0.000431 0.000000
0.000042 0.000439 0.000000
0.000043 0.000450 0.000000
0.000042 0.000460 0.000000
0.000037 0.000469 0.000000
0.000045 0.000477 0.000000
0.000043 0.000496 0.000000
0.000040 0.000498 0.000000
0.000737 0.000822 0.000000
0.000951 0.000999 0.000000
0.000969 0.000999 0.000000
0.000977 0.000993 0.000000
0.000985 0.001000 0.000000
0.001006 0.000989 0.000000
0.001028 0.000984 0.000000
0.001026 0.000975 0.000000
0.001036 0.000988 0.000000
0.001044 0.000977 0.000000
0.000050 0.000300 0.000000
0.000050 0.000310 0.000000
0.000050 0.000320 0.000000
0.000050 0.000329 0.000000
0.000050 0.000340 0.000000
0.000051 0.000351 0.000000
0.000050 0.000361 0.000000
0.000052 0.000371 0.000000
0.000050 0.000380 0.000000
0.000052 0.000390 0.000000
0.000051 0.000400 0.000000
0.000050 0.000411 0.000000
0.000052 0.000420 0.000000
0.000051 0.000430 0.000000
0.000053 0.000440 0.000000
0.000048 0.000451 0.000000
0.000054 0.000458 0.000000
0.000053 0.000469 0.000000
0.000056 0.000483 0.000000
0.000048 0.000488 0.000000
0.000050 0.000498 0.000000
0.000940 0.001014 0.000000
0.000896 0.000999 0.000000
0.000964 0.000992 0.000000
0.000979 0.000980 0.000000
0.000993 0.000984 0.000000
0.001010 0.000982 0.000000
0.001001 0.000978 0.000000
0.001018 0.000983 0.000000
0.001034 0.000976 0.000000
0.001041 0.000966 0.000000
0.000060 0.000300 0.000000
0.000060 0.000310 0.000000
0.000060 0.000320 0.000000
0.000061 0.000332 0.000000
0.000061 0.000339 0.000000
0.000060 0.000349 0.000000
0.000061 0.000358 0.000000
0.000060 0.000368 0.000000
0.000061 0.000380 0.000000
0.000060 0.000391 0.000000
0.000062 0.000400 0.000000
0.000060 0.000409 0.000000
0.000063 0.000419 0.000000
0.000059 0.000431 0.000000
0.000065 0.000440 0.000000
0.000060 0.000449 0.000000
0.000065 0.000460 0.000000
0.000055 0.000472 0.000000
0.000064 0.000475 0.000000
0.000068 0.000486 0.000000
0.000058 0.000496 0.000000
0.000930 0.001012 0.000000
0.000941 0.000998 0.000000
0.000958 0.000982 0.000000
0.000971 0.000983 0.000000
0.000988 0.000972 0.000000
0.000992 0.000966 0.000000
0.001021 0.000965 0.000000
0.001011 0.000972 0.000000
0.001030 0.000965 0.000000
0.001038 0.000957 0.000000
0.000070 0.000300 0.000000
0.000070 0.000310 0.000000
0.000070 0.000319 0.000000
0.000070 0.000328 0.000000
0.000071 0.000340 0.000000
0.000070 0.000352 0.000000
0.000073 0.000359 0.000000
0.000069 0.000373 0.000000
0.000081 0.000376 0.000000
0.000070 0.000390 0.000000
0.000073 0.000400 0.000000
0.000069 0.000411 0.000000
0.000075 0.000421 0.000000
0.000068 0.000429 0.000000
0.000075 0.000438 0.000000
0.000067 0.000451 0.000000
0.000077 0.000458 0.000000
0.000073 0.000470 0.000000
0.000076 0.000486 0.000000
0.000068 0.000495 0.000000
0.000076 0.000496 0.000000
0.000730 0.000800 0.000000
0.000930 0.000999 0.000000
0.000951 0.000988 0.000000
0.000972 0.000962 0.000000
0.000988 0.000983 0.000000
0.001002 0.000966 0.000000
0.001012 0.000964 0.000000
0.001006 0.000955 0.000000
0.001027 0.000955 0.000000
0.001035 0.000948 0.000000
0.000080 0.000300 0.000000
0.000080 0.000310 0.000000
0.000081 0.000321 0.000000
0.000079 0.000331 0.000000
0.000082 0.000340 0.000000
0.000079 0.000349 0.000000
0.000083 0.000361 0.000000
0.000073 0.000369 0.000000
0.000076 0.000383 0.000000
0.000080 0.000392 0.000000
0.000089 0.000397 0.000000
0.000078 0.000410 0.000000
0.000085 0.000416 0.000000
0.000078 0.000431 0.000000
0.000086 0.000445 0.000000
0.000077 0.000448 0.000000
0.000085 0.000463 0.000000
0.000074 0.000470 0.000000
0.000087 0.000473 0.000000
0.000085 0.000482 0.000000
0.000084 0.000495 0.000000
0.000920 0.001010 0.000000
0.000891 0.001004 0.000000
0.000956 0.000970 0.000000
0.000967 0.000977 0.000000
0.000979 0.000969 0.000000
0.000986 0.000957 0.000000
0.000996 0.000956 0.000000
0.001016 0.000953 0.000000
0.001024 0.000946 0.000000
0.001032 0.000938 0.000000
0.000090 0.000300 0.000000
0.000090 0.000310 0.000000
0.000090 0.000319 0.000000
0.000090 0.000329 0.000000
0.000091 0.000340 0.000000
0.000089 0.000350 0.000000
0.000091 0.000361 0.000000
0.000089 0.000369 0.000000
0.000092 0.000379 0.000000
0.000090 0.000387 0.000000
0.000085 0.000404 0.000000
0.000093 0.000410 0.000000
0.000087 0.000425 0.000000
0.000096 0.000426 0.000000
0.000089 0.000435 0.000000
0.000097 0.000456 0.000000
0.000087 0.000453 0.000000
0.000097 0.000471 0.000000
0.000106 0.000480 0.000000
0.000089 0.000494 0.000000
0.000094 0.000495 0.000000
0.000744 0.000838 0.000000
0.000925 0.000994 0.000000
0.000913 0.001000 0.000000
0.000944 0.000989 0.000000
0.000964 0.000958 0.000000
0.000990 0.000948 0.000000
0.001005 0.000947 0.000000
0.001011 0.000942 0.000000
0.001020 0.000937 0.000000
0.001028 0.000929 0.000000
0.000100 0.000300 0.000000
0.000100 0.000310 0.000000
0.000101 0.000321 0.000000
0.000100 0.000331 0.000000
0.000101 0.000340 0.000000
0.000100 0.000349 0.000000
0.000100 0.000359 0.000000
0.000101 0.000370 0.000000
0.000100 0.000381 0.000000
0.000100 0.000391 0.000000
0.000100 0.000400 0.000000
0.000103 0.000406 0.000000
0.000101 0.000418 0.000000
0.000100 0.000436 0.000000
0.000110 0.000444 0.000000
0.000096 0.000445 0.000000
0.000107 0.000460 0.000000
0.000098 0.000467 0.000000
0.000094 0.000481 0.000000
0.000106 0.000491 0.000000
0.000101 0.000494 0.000000
0.000852 0.000981 0.000000
0.000861 0.000987 0.000000
0.000886 0.001001 0.000000
0.000967 0.000968 0.000000
0.000979 0.000954 0.000000
0.000980 0.000944 0.000000
0.001001 0.000938 0.000000
0.000993 0.000935 0.000000
0.001015 0.000931 0.000000
0.001023 0.000920 0.000000
0.000110 0.000300 0.000000
0.000110 0.000310 0.000000
0.000110 0.000319 0.000000
0.000110 0.000329 0.000000
0.000111 0.000341 0.000000
0.000109 0.000351 0.000000
0.000111 0.000360 0.000000
0.000110 0.000370 0.000000
0.000111 0.000378 0.000000
0.000111 0.000389 0.000000
0.000113 0.000400 0.000000
0.000110 0.000414 0.000000
0.000116 0.000422 0.000000
0.000107 0.000427 0.000000
0.000112 0.000433 0.000000
0.000106 0.000449 0.000000
0.000115 0.000461 0.000000
0.000111 0.000470 0.000000
0.000116 0.000480 0.000000
0.000111 0.000493 0.000000
0.000119 0.000492 0.000000
0.000800 0.000934 0.000000
0.000752 0.000859 0.000000
0.000919 0.000989 0.000000
0.000940 0.000977 0.000000
0.000930 0.000975 0.000000
[...]
POINT_DATA 6231
SCALARS density float 1
LOOKUP_TABLE default
4413.952693
4427.871958
4423.815582
4421.525631
4422.021609
4421.748835
4424.260442
4425.962456
4428.595423
4429.494428
4426.447612
4430.156523
4429.548273
4432.135603
4431.440264
4439.544087
4423.100713
4432.557463
4413.570486
4424.034722
4411.319077
4423.281289
4426.648655
4430.305726
4441.523586
4417.654902
4399.093696
4426.940521
4450.609765
4451.767888
4416.532056
4420.060302
4425.857406
4422.920450
4427.796228
4430.252633
4430.754766
4426.433417
4432.477129
4428.700149
4430.513435
4426.936576
4435.059747
4423.615500
4432.826308
4415.063744
4428.932761
4412.027710
4440.265039
4464.084603
4459.924220
4416.116015
4411.523282
4414.992870
4438.196554
4507.389356
4399.607579
4400.835546
4426.340273
4399.055894
4453.695068
4439.930269
4419.458944
4425.725575
4429.909070
4427.013984
4422.252930
4426.489478
4422.218363
4429.262557
4413.307029
4433.430208
4422.652150
4432.450021
4421.387852
4442.648260
4420.381248
4470.292461
4401.073941
4453.905110
4350.657241
4451.575735
4421.294564
4419.241096
4433.819220
4413.868687
4499.288226
4331.875412
4363.327494
4415.308418
4422.386854
4425.023176
4401.851015
4426.916429
4432.447300
4425.430779
4427.123701
4434.164125
4432.420654
4431.301894
4438.349731
4430.382557
4443.162107
4411.552199
4437.651650
4422.397764
4438.920548
4403.898549
4430.227379
4396.678838
4453.297837
4374.459930
4550.527651
4372.627993
4432.342932
4457.452392
4432.747546
4482.445375
4342.376973
4486.649159
4463.577920
4414.976790
4478.824169
4432.563767
4427.720313
4426.845634
4428.822223
4437.655605
4430.126091
4428.798106
4430.271763
4424.169252
4422.279465
4418.889429
4422.761329
4448.002092
4405.926712
4444.668117
4421.123113
4452.848464
4388.401658
4508.021250
4308.582962
4419.457198
4385.297252
4428.740328
4404.542808
4434.321152
4405.153456
4483.235085
4428.483286
4411.172941
4482.900844
4443.210880
4413.129993
4428.490659
4435.365940
4433.681466
4430.936663
4427.370358
4436.452309
4429.195248
4445.849795
4434.331862
4440.698956
4425.409043
4426.097312
4415.416275
4456.315082
4369.843651
4477.719577
4362.422682
4472.044774
4359.812016
4538.660810
4381.790939
4444.212636
4429.621852
4465.988812
4426.205628
4444.261594
4452.409548
4390.172294
4395.531508
4420.702262
4418.803611
4436.550597
4436.789226
4417.379152
4441.166462
4436.570573
4441.516228
4413.030935
4427.049801
4387.922620
4439.831438
4413.399816
4443.914447
4416.871817
4431.145867
4421.505784
4464.746859
4397.131518
4522.067065
4378.353346
4479.197681
4432.827130
4416.643175
4396.714165
4401.499540
4452.934634
4457.236348
4423.304970
4410.160448
4416.060753
4420.989483
4429.927769
4428.883568
4422.739523
4436.143943
4439.140615
4397.700044
4444.451318
4414.229459
4443.976141
4394.574390
4460.389476
4392.556175
4434.733103
4404.855247
4439.411307
4434.397575
4458.970068
4442.980867
4452.323885
4448.798743
4414.223314
4390.666807
4438.647835
4458.801675
4436.967278
4423.129879
4421.026164
4419.068601
4454.647855
4440.813491
4443.214670
4414.258971
4428.423184
4432.189258
4428.277250
4409.175179
4439.419489
4442.081483
4418.785775
4451.995426
4422.657421
4430.412972
4409.638215
4437.858225
4429.414588
4439.433938
4462.266291
4386.401422
4448.491463
4452.563788
4364.917721
4463.181256
4417.434201
4432.875236
4414.282378
4424.255113
4448.361277
4382.655078
4447.706657
4434.132892
4404.997962
4434.066963
4438.951452
4432.729323
4432.746135
4418.226128
4425.044199
4436.610057
4406.817138
4447.545826
4438.075631
4455.277660
4441.660004
4443.539621
4394.692352
4419.864856
4458.962892
4419.840991
4381.658921
4441.327780
4437.211121
4429.930412
4428.695923
4416.035642
4429.291547
4428.109489
4425.348427
4488.333609
4409.555124
4388.409202
4438.157019
4443.692682
4427.521701
4412.646706
4428.136592
4422.044615
4436.863115
4437.367448
4417.454325
4438.647706
4436.900838
4408.005061
4427.776999
4405.572649
4441.831552
4448.373860
4415.236621
4387.230458
4448.994195
4451.329746
4410.026350
4471.338799
4412.132778
4437.642971
4418.911833
4422.350121
4431.391926
4422.709613
4453.550581
4463.850891
4376.481507
4401.643187
4468.655731
4452.848551
4423.368955
4424.499818
4435.678044
4437.161336
4410.582703
4437.855942
4433.594572
4412.405121
4446.653990
4439.454038
4441.294596
4395.000422
4442.428731
4402.665007
4452.409777
4421.975377
4437.128259
4475.280831
4389.565734
4457.615826
4406.338940
4411.728351
4438.702035
4439.496467
4439.639243
4394.903835
4442.811383
4451.125543
4465.093622
4410.025186
4422.044301
4454.080418
4430.932694
4431.169513
4414.800631
4442.254853
4441.802382
4408.765255
4426.420835
4442.303468
4384.724226
4459.442833
4423.073888
4422.569131
4454.856869
4445.139866
4418.320927
4376.873551
4432.990110
4390.194909
4435.524452
4433.578944
4394.687724
4439.437677
4419.559783
4431.082319
4452.416600
4452.818908
4421.276114
4339.402041
4459.660275
4387.534682
4416.219356
4433.261893
4435.774723
4429.633772
4436.229944
4404.641968
4457.185609
4438.579654
4415.293253
4459.128663
4429.613048
4414.774197
4401.015353
4419.176234
4443.633909
4413.540889
4462.834253
4398.771495
4459.050578
4489.125632
4419.303448
4439.110340
4435.719973
4421.015720
4423.251018
4431.247508
4429.241018
4447.681689
4467.278804
4474.126571
4498.359748
4453.350997
4434.474961
4437.163048
4426.380422
4425.419629
4437.835256
4427.211733
4410.748224
4415.238728
4448.844692
4388.771187
4434.787781
4437.707893
4442.492118
4418.435658
4429.564406
4381.664844
4420.386695
4492.178351
4573.964197
4386.135878
4374.306089
4420.356107
4418.074645
4445.839790
4443.702724
4371.763504
4456.928398
4421.249369
4402.721609
4403.186171
4449.786927
4433.378160
4429.616178
4436.057516
4426.940488
4432.095485
4400.929788
4443.962851
4461.328567
4404.001401
4427.517521
4438.068915
4432.330406
4427.422323
4419.486124
4458.858037
4406.432377
4495.879660
4355.413754
4338.745004
4483.959246
4394.486541
4411.478428
4437.365926
4437.985664
4483.396444
4445.404438
4417.883222
4433.772079
4400.003955
4424.811494
4412.018525
4433.131406
4427.919523
4440.693414
4421.908137
4430.123998
4449.350436
4400.376782
4408.730058
4408.827280
4464.501313
4421.186689
4396.453428
4444.862113
4409.145385
4427.821440
4444.577058
4403.682157
4489.025974
4474.569764
4420.331014
4407.202139
4427.615919
4452.991182
4404.261004
4372.009225
4473.935234
4457.127396
4422.736592
4403.036405
4431.653833
4429.081027
4437.151158
4429.476064
4423.653171
4442.382463
4421.718517
4427.307144
4430.119646
4438.426767
4434.653335
4404.835287
4463.064989
4420.133812
4431.674443
4446.685305
4420.148383
4434.099660
4390.541644
4489.014057
4364.977551
4363.918341
4424.288950
4421.715908
4440.162577
4445.665875
4398.388883
4449.972139
4444.491514
4420.347993
4464.033664
4433.829745
4439.126206
4426.862183
4440.210535
4427.247053
4437.254537
4432.549225
4423.466486
4443.614995
4398.934936
4441.992929
4457.256403
4404.998148
4431.530038
4407.078635
4446.880189
4392.313495
4464.859560
4354.001328
4459.542874
4401.018911
4443.433163
4392.999759
4429.003653
4434.526925
4435.794171
4456.940157
4403.098593
4465.454148
4457.705906
4414.201480
4410.446727
4420.730095
4431.112570
4424.822832
4427.011401
4413.635494
4445.318817
4430.994627
4421.081913
4451.969117
4414.351283
4404.858882
4429.119651
4452.594356
4409.902201
4443.389894
4408.602476
4451.294339
4373.613057
4464.403660
4434.816076
4571.164358
4376.746454
4475.332522
4421.239522
4439.300757
4442.185143
4390.992171
4456.626430
4395.625313
4409.097237
4422.891980
4420.551355
4436.994811
4428.613791
4439.201833
4445.254539
4410.349191
4440.006000
4412.367805
4435.693728
4421.915266
4432.368339
4447.073020
4417.195279
4409.553935
4438.230561
4420.073115
4469.072846
4445.226387
4481.908539
4368.079023
4385.845401
4435.167167
4410.590531
4427.277412
4458.449423
4414.019233
4401.818419
4426.451459
4447.933432
4459.195757
4415.988166
4407.640395
4433.563507
4432.017249
4421.963907
4428.036410
4431.946776
4440.105944
4419.705973
4424.313049
4415.900557
4432.632849
4398.884737
4437.791252
4449.693206
4446.022162
4394.295472
4452.205758
4413.653415
4448.569131
4395.775175
4467.441534
4409.927644
4446.830813
4416.973651
4427.009752
4431.535897
4414.125980
4382.802318
4449.659568
4357.457502
4424.562231
4443.780393
4426.480945
4435.102463
4434.018606
4434.798878
4430.393680
4409.385722
4428.314848
4446.484765
4412.066471
4435.450164
4419.633681
4428.043165
4467.270869
4384.839374
4419.309070
4451.249102
4385.643544
4415.404309
4416.678109
4444.343163
4424.696782
4426.451290
4421.479799
4459.284440
4422.042154
4453.074294
4476.659764
4358.586930
4483.536126
4379.382627
4423.416806
4429.931284
4434.153029
4424.020484
4429.043760
4421.761477
4445.479713
4432.568341
4400.485969
4414.995993
4440.652136
4410.386579
4415.720341
4440.471061
4416.838111
4429.074012
4417.565995
4442.003507
4424.339033
4412.482037
4439.016065
4418.321651
4410.971900
4453.845774
4403.556939
4436.164255
4456.603993
4427.217728
4369.809089
4439.125335
4439.113481
4447.301296
4427.859498
4434.703323
4419.449192
4442.967083
4425.519498
4420.052108
4407.799452
4439.665033
4441.357310
4406.098986
4425.328913
4431.518695
4426.937012
4415.914315
4429.854919
4431.111115
4399.836906
4456.130195
4441.615386
4500.507077
4408.596444
4416.766691
4454.109239
4413.234675
4454.926977
4435.957091
4460.107137
4434.310699
4434.654023
4425.401893
4436.198611
4426.478214
4439.615678
4422.239074
4432.957154
4419.074538
4438.304127
4439.155216
4404.515240
4419.411748
4424.790313
4453.805752
4420.719876
4404.211495
4433.431216
4434.186667
4431.465920
4432.635740
4430.138076
4366.485528
4409.947369
4430.810793
4407.211317
4448.775765
4434.463900
4418.606916
4424.615182
4433.357677
4421.160809
4427.530539
4408.115356
4420.910625
4428.599776
4435.054669
4419.735470
4436.301793
4426.960332
4423.748263
4410.171309
4440.369305
4436.262457
4434.278590
4389.758373
4435.513594
4429.130753
4429.530367
4408.494743
4446.004948
4428.893222
4471.757142
4401.675573
4434.777452
4424.463902
4439.711367
4426.663496
4382.683315
4428.803533
4433.255965
4421.759191
4435.106069
4487.718770
4419.532334
4443.850085
4429.691257
4432.953892
4427.517494
4434.633863
4421.616654
4441.659555
4426.113104
4431.922496
4400.022450
4438.213014
4442.794275
4419.219563
4420.193644
4453.850344
4419.971905
4462.198401
4403.516799
4466.071032
4424.379858
4440.717854
4417.484938
4424.491287
4432.480060
4432.913341
4420.694141
4430.825234
4421.048054
4426.743113
4391.100224
4394.316049
4428.354595
4430.893385
4427.551979
4428.717315
4431.552726
4427.956033
4439.409498
4422.469611
4432.216171
4439.235482
4408.418561
4414.395649
4432.847043
4416.398782
4445.792769
4388.499397
4446.721834
4399.969925
4442.238682
4421.054880
4430.522657
4406.840365
4439.312906
4416.010263
4431.250154
4475.602785
4385.278811
4425.206382
4442.890367
4385.974409
4440.450245
4404.691329
4427.249962
4428.003985
4431.244854
4429.340145
4435.619491
4415.816746
4439.236712
4424.024653
4425.425385
4437.444606
4416.096851
4445.030565
4433.268037
4390.934558
4442.923225
4446.741286
4406.938890
4385.665404
4373.358302
4460.615588
4435.965264
4408.935994
4416.523341
4404.761411
4451.831106
4442.402388
4430.202365
4470.459049
4440.419074
4432.454344
4453.111721
4433.595591
4430.506049
4429.941915
4423.103269
4437.535563
4421.584865
4439.580395
4426.844457
4408.782902
4432.069142
4438.273225
4394.962772
4445.350044
4449.108655
4414.274291
4408.131849
4421.853295
4495.369664
4465.224652
4434.695520
4440.642893
4432.967595
4452.647022
4419.015816
4431.458717
4428.436076
4432.702725
4431.339610
4429.499801
4397.196670
4430.150168
4430.817977
4429.427123
4436.721027
4437.427049
4428.298707
4438.453308
4411.282759
4438.922939
4449.902931
4408.414292
4443.971498
4444.520685
4428.437755
4411.700640
4442.373985
4455.427919
4393.051327
4450.439004
4393.751967
4374.552518
4429.125650
4433.574288
4423.047591
4384.382620
4467.988398
4396.656091
4425.509278
4412.074808
4472.464795
4359.351906
4421.207630
4433.544017
4432.603647
4422.732681
4430.016184
4421.845845
4444.319328
4431.393755
4410.573902
4416.597679
4452.428521
4418.816676
4416.275237
4427.104334
4455.175774
4425.356934
4423.462472
4407.425455
4392.486027
4467.868941
4464.548845
4447.493375
4400.186405
4407.935808
4424.651032
4449.631248
4432.925488
4377.551346
4461.429870
4422.445011
4466.367343
4419.710843
4434.413617
4433.816042
4429.712710
4434.919285
4433.533638
4413.593417
4422.535107
4446.188611
4410.932125
4432.917092
4409.817768
4463.715877
4420.981716
4434.399723
4400.264279
4441.348971
4455.661180
4461.976047
4338.114449
4475.010248
4459.463123
4430.305264
4485.304165
4433.153433
4452.337315
4460.475877
4436.736297
4420.426447
4393.397676
4397.436669
4437.184451
4431.054080
4422.264492
4427.273934
4406.831625
4442.426628
4436.556145
4433.503463
4428.494814
4416.645412
4437.410296
4398.998708
4437.326959
4401.575344
4443.862350
4397.161943
4442.240302
4382.225490
4443.427122
4322.131199
4499.309731
4440.166474
4422.214661
4420.053315
4518.532900
4394.919170
4437.582089
4406.348419
4465.495881
4363.697842
4434.010616
4446.771178
4427.569557
4433.074514
4435.759851
4440.039155
4415.236344
4433.273751
4407.982133
4427.813620
4422.844175
4428.999415
4434.693521
4420.389592
4403.709121
4458.730987
4402.109385
4456.788169
4390.115756
4476.753330
4457.776580
4506.054557
4422.385341
4416.566663
4362.924673
4433.626750
4402.607979
4438.283262
4466.303265
4459.611008
4458.159839
4366.368789
4456.451236
4428.244351
4429.275462
4412.986815
4429.995644
4419.371445
4443.112228
4420.678799
4406.574830
4414.371217
4406.087329
4430.306989
4447.335979
4418.829997
4411.320202
4440.616103
4429.816400
4423.805547
4433.859264
4437.065649
4508.174907
4525.057073
4435.095609
4439.734742
4424.375172
4416.780185
4463.068504
4399.129183
4416.404121
4438.633940
4433.279056
4414.915807
4421.986311
4430.533957
4428.229437
4420.479831
4425.447047
4419.283574
4424.987152
4440.241752
4430.253411
4416.443166
4446.128220
4453.427730
4401.490746
4433.653308
4425.538280
4426.377490
4448.797460
4405.876956
4404.141552
4428.748132
4390.009456
4415.338592
4421.478252
4415.808965
4416.640490
4445.019535
4376.777553
4373.948870
4498.914560
4477.435969
4417.699938
4420.181790
4421.092290
4431.051418
4413.050810
4421.954247
4417.858553
4416.272861
4443.641813
4406.285561
4424.738674
4460.090807
4437.095390
4408.640873
4443.625401
4415.865200
4462.875459
4391.173300
4452.936268
4429.635214
4450.934075
4429.658361
4442.645165
4428.629005
4429.891932
4435.284237
4466.515027
4483.701864
4436.044689
4365.555910
4443.354671
4393.893263
4428.232960
4423.213167
4423.601385
4432.580242
4444.929239
4420.811404
4438.050475
4422.309549
4443.837208
4449.612599
4408.078297
4420.640806
4407.200636
4417.161059
4432.073042
4429.276129
4442.843938
4401.961236
4444.203148
4449.072856
4427.431430
4431.299593
4429.796219
4421.724604
4455.682470
4459.335292
4407.635137
4531.578638
4375.044874
4424.558059
4426.510350
4423.781537
4436.555196
4430.770632
4424.703776
4415.646196
4416.901491
4416.005409
4417.933328
4441.824151
4412.172696
4410.422410
4428.854771
4420.893125
4425.656262
4418.556427
4437.180687
4390.963247
4424.273608
4429.100549
4448.455694
4436.803462
4430.424101
4443.673808
4448.425930
4461.714510
4438.357852
4468.073407
4424.559364
4340.958962
4397.889245
4416.282163
4425.496712
4417.126895
4417.367091
4434.563006
4435.192572
4436.763820
4422.927400
4441.803370
4404.636083
4403.689758
4434.634597
4440.758276
4421.836691
4431.474022
4428.588852
4418.273088
4479.617225
4378.384720
4426.455385
4436.131740
4424.892113
4424.411916
4462.484448
4417.861507
4405.435117
4461.285270
4426.494863
4380.961888
4449.627094
4476.362996
4412.339054
4428.912957
4423.888252
4438.743012
4422.505452
4420.300905
4407.418658
4443.359019
4401.019547
4438.986785
4441.257704
4394.760475
4450.488175
4439.114331
4421.791639
4401.718785
4448.270859
4395.396988
4408.562933
4374.987111
4424.028040
4435.160535
4434.780241
4417.306634
4437.896652
4433.900140
4439.951795
4392.137467
4383.425664
4461.651113
4360.920464
4420.501002
4424.205861
4416.277098
4432.759092
4401.319821
4459.163513
4424.680150
4467.715186
4382.987415
4454.150505
4402.445726
4431.270130
4430.460866
4427.530636
4430.183726
4411.548742
4429.265974
4414.040271
4442.698089
4465.937526
4450.090862
4435.054646
4427.108145
4441.638926
4439.950204
4439.371552
4444.494142
4464.585160
4476.748123
4462.105393
4419.424212
4407.799470
4425.144762
4418.922508
4439.442694
4421.953715
4428.170700
4382.969771
4425.880317
4423.316365
4426.473668
4418.030953
4443.155086
4399.380934
4422.637663
4405.659083
4441.514922
4433.062025
4410.355648
4420.192056
4380.855553
4479.377708
4450.075411
4440.068770
4394.446056
4428.581549
4430.092510
4407.153112
4432.182190
4400.773693
4457.388703
4421.715783
4412.020482
4425.360344
4424.724014
4433.722678
4407.552208
4438.555266
4446.105723
4444.803591
4418.534743
4415.945327
4443.063080
4429.382752
4452.864498
4410.629095
4452.537961
4464.428382
4400.556981
4400.166255
4466.693449
4381.934364
4437.256583
4417.082894
4404.120925
4436.557020
4427.490338
4443.107015
4446.660236
4439.600508
4390.440851
4427.380342
4402.407952
4464.492212
4428.007417
4431.421696
4418.308659
4445.946427
4413.278460
4448.181017
4424.630412
4417.684981
4408.206320
4438.120461
4417.920962
4423.799427
4423.624946
4431.880058
4462.146317
4413.140264
4439.324691
4473.425372
4424.243331
4328.570657
4399.691298
4426.864607
4413.551503
4424.004582
4420.489502
4453.514723
4437.241684
4380.885713
4408.597657
4414.065521
4367.979339
4430.021531
4437.701117
4421.029013
4432.222220
4420.650546
4401.086554
4445.263909
4433.766752
4419.880163
4408.151784
4420.936291
4441.555064
4457.030195
4387.832607
4462.795238
4379.180335
4417.733777
4466.808289
4376.606423
4548.541569
4389.441536
4428.647385
4408.200568
4434.401804
4436.728111
4423.875683
4415.454590
4421.903731
4475.460069
4410.164109
4426.221739
4429.652141
4433.647576
4423.984146
4426.425227
4426.344921
4418.202240
4387.116346
4435.285581
4420.557739
4409.271334
4406.389622
4472.906167
4404.640481
4432.982406
4451.847451
4461.333040
4438.422460
4411.697294
4424.526445
4426.055126
4488.248073
4479.015136
4471.312904
4428.708939
4465.754950
4429.580632
4438.874238
4435.143863
4461.450853
4449.707473
4479.043537
4431.298800
4431.563461
4434.566568
4437.299642
4418.724353
4450.076207
4445.484371
4438.311066
4416.666840
4406.835253
4435.838112
4405.509601
4427.138645
4446.443963
4395.910800
4450.034097
4397.188072
4402.104646
4430.222113
4446.708657
4643.614121
4465.599992
4471.931936
4452.273168
4420.955537
4435.994686
4446.500938
4395.506249
4380.113926
4340.244157
4387.299703
4434.803859
4438.216075
4412.378551
4427.936171
4430.974442
4423.227263
4429.093939
4404.304798
4440.816448
4462.711685
4405.773698
4452.621756
4435.988553
4421.079392
4442.315850
4429.900572
4422.338624
4432.932490
4414.323172
4424.855043
4448.986740
4419.038311
4443.706517
4432.437910
4451.183494
4392.616476
4429.737679
4462.092285
4479.635628
4407.867012
4452.606165
4429.150368
4425.813468
4432.239624
4429.724497
4425.521722
4430.336247
4410.492913
4432.571961
4397.669041
4413.552043
4416.376032
4446.515491
4410.974103
4420.265416
4423.119942
4434.128311
4433.868150
4444.948504
4403.329503
4413.474844
4395.606752
4437.824845
4356.239781
4458.065946
4391.447930
4441.706612
4449.415640
4382.110897
4465.361268
4385.284664
4418.403997
4429.828680
4427.075944
4431.520165
4454.001581
4425.190623
4428.840043
4428.195074
4429.765364
4455.550976
4423.175357
4420.784973
4422.141635
4415.044497
4448.378232
4442.157614
4458.856118
4419.259946
4453.209395
4477.247749
4383.785354
4426.741699
4460.529567
4438.970474
4400.458370
4441.874805
4451.424679
4437.084230
4451.417720
4431.070218
4426.422311
4397.777206
4425.812000
4442.771313
4402.112745
4405.790880
4449.533863
4438.184207
4423.841859
4413.548241
4417.929551
4432.870875
4413.234744
4424.479013
4410.246647
4435.885187
4417.621970
4443.167652
4422.115299
4458.473214