# vtk DataFile Version 2.0
mfree iwf
ASCII

DATASET UNSTRUCTURED_GRID
POINTS 6231 float
0.000000 0.000300 0.000000
0.000000 0.000310 0.000000
0.000000 0.000320 0.000000
0.000000 0.000330 0.000000
0.000000 0.000340 0.000000
0.000001 0.000351 0.000000
0.000001 0.000361 0.000000
0.000001 0.000371 0.000000
0.000001 0.000381 0.000000
0.000001 0.000391 0.000000
0.000001 0.000401 0.000000
0.000001 0.000411 0.000000
0.000001 0.000421 0.000000
0.000001 0.000431 0.000000
0.000002 0.000441 0.000000
0.000002 0.000451 0.000000
0.000002 0.000461 0.000000
0.000002 0.000471 0.000000
0.000003 0.000481 0.000000
0.000002 0.000492 0.000000
0.000006 0.000501 0.000000
0.000046 0.000513 0.000000
0.000046 0.000530 0.000000
0.000046 0.000535 0.000000
0.000046 0.000550 0.000000
0.000046 0.000556 0.000000
0.000046 0.000567 0.000000
0.000046 0.000576 0.000000
0.000046 0.000587 0.000000
0.000046 0.000600 0.000000
0.000046 0.000633 0.000000
0.000010 0.000300 0.000000
0.000010 0.000310 0.000000
0.000010 0.000320 0.000000
0.000010 0.000330 0.000000
0.000010 0.000340 0.000000
0.000011 0.000351 0.000000
0.000011 0.000360 0.000000
0.000011 0.000370 0.000000
0.000011 0.000381 0.000000
0.000011 0.000391 0.000000
0.000011 0.000401 0.000000
0.000011 0.000411 0.000000
0.000011 0.000421 0.000000
0.000011 0.000431 0.000000
0.000012 0.000441 0.000000
0.000012 0.000451 0.000000
0.000012 0.000460 0.000000
0.000012 0.000472 0.000000
0.000014 0.000480 0.000000
0.000010 0.000492 0.000000
0.000013 0.000498 0.000000
0.000054 0.000522 0.000000
0.000054 0.000537 0.000000
0.000055 0.000548 0.000000
0.000056 0.000562 0.000000
0.000055 0.000574 0.000000
0.000054 0.000587 0.000000
0.000054 0.000600 0.000000
0.000051 0.000611 0.000000
0.000050 0.000618 0.000000
0.000046 0.000625 0.000000
0.000020 0.000300 0.000000
0.000020 0.000310 0.000000
0.000020 0.000320 0.000000
0.000020 0.000330 0.000000
0.000021 0.000340 0.000000
0.000020 0.000350 0.000000
0.000021 0.000360 0.000000
0.000021 0.000371 0.000000
0.000021 0.000380 0.000000
0.000020 0.000390 0.000000
0.000022 0.000401 0.000000
0.000021 0.000411 0.000000
0.000022 0.000420 0.000000
0.000021 0.000431 0.000000
0.000022 0.000440 0.000000
0.000021 0.000451 0.000000
0.000023 0.000460 0.000000
0.000021 0.000471 0.000000
0.000023 0.000480 0.000000
0.000025 0.000495 0.000000
0.000020 0.000498 0.000000
0.000059 0.000526 0.000000
0.000066 0.000529 0.000000
0.000063 0.000542 0.000000
0.000064 0.000555 0.000000
0.000063 0.000565 0.000000
0.000063 0.000578 0.000000
0.000061 0.000590 0.000000
0.000059 0.000607 0.000000
0.000057 0.000619 0.000000
0.000059 0.000629 0.000000
0.000030 0.000300 0.000000
0.000030 0.000310 0.000000
0.000030 0.000320 0.000000
0.000030 0.000330 0.000000
0.000031 0.000340 0.000000
0.000030 0.000351 0.000000
0.000032 0.000361 0.000000
0.000030 0.000370 0.000000
0.000031 0.000380 0.000000
0.000030 0.000391 0.000000
0.000032 0.000400 0.000000
0.000030 0.000411 0.000000
0.000033 0.000420 0.000000
0.000030 0.000431 0.000000
0.000033 0.000440 0.000000
0.000030 0.000451 0.000000
0.000034 0.000459 0.000000
0.000030 0.000471 0.000000
0.000034 0.000480 0.000000
0.000030 0.000490 0.000000
0.000033 0.000498 0.000000
0.000048 0.000503 0.000000
0.000072 0.000538 0.000000
0.000070 0.000549 0.000000
0.000072 0.000564 0.000000
0.000070 0.000575 0.000000
0.000070 0.000589 0.000000
0.000069 0.000597 0.000000
0.000067 0.000608 0.000000
0.000070 0.000618 0.000000
0.000068 0.000629 0.000000
0.000040 0.000300 0.000000
0.000040 0.000310 0.000000
0.000040 0.000320 0.000000
0.000040 0.000330 0.000000
0.000040 0.000341 0.000000
0.000041 0.000350 0.000000
0.000041 0.000360 0.000000
0.000040 0.000371 0.000000
0.000042 0.000381 0.000000
0.000040 0.000390 0.000000
0.000042 0.000400 0.000000
0.000041 0.000411 0.000000
0.000042 0.000420 0.000000
0.000040 0.000431 0.000000
0.000043 0.000440 0.000000
0.000040 0.000451 0.000000
0.000043 0.000460 0.000000
0.000040 0.000471 0.000000
0.000044 0.000478 0.000000
0.000043 0.000493 0.000000
0.000042 0.000499 0.000000
0.000059 0.000511 0.000000
0.000078 0.000535 0.000000
0.000081 0.000547 0.000000
0.000079 0.000560 0.000000
0.000080 0.000573 0.000000
0.000078 0.000584 0.000000
0.000078 0.000599 0.000000
0.000078 0.000609 0.000000
0.000076 0.000619 0.000000
0.000077 0.000630 0.000000
0.000050 0.000300 0.000000
0.000050 0.000310 0.000000
0.000050 0.000320 0.000000
0.000051 0.000331 0.000000
0.000050 0.000340 0.000000
0.000051 0.000350 0.000000
0.000050 0.000361 0.000000
0.000051 0.000371 0.000000
0.000050 0.000379 0.000000
0.000051 0.000390 0.000000
0.000051 0.000401 0.000000
0.000051 0.000410 0.000000
0.000051 0.000420 0.000000
0.000052 0.000430 0.000000
0.000051 0.000440 0.000000
0.000052 0.000450 0.000000
0.000052 0.000460 0.000000
0.000053 0.000470 0.000000
0.000050 0.000482 0.000000
0.000055 0.000488 0.000000
0.000054 0.000500 0.000000
0.000066 0.000516 0.000000
0.000075 0.000524 0.000000
0.000086 0.000549 0.000000
0.000087 0.000562 0.000000
0.000087 0.000577 0.000000
0.000086 0.000587 0.000000
0.000086 0.000597 0.000000
0.000087 0.000608 0.000000
0.000087 0.000619 0.000000
0.000087 0.000629 0.000000
0.000060 0.000300 0.000000
0.000060 0.000310 0.000000
0.000060 0.000320 0.000000
0.000060 0.000330 0.000000
0.000060 0.000340 0.000000
0.000061 0.000351 0.000000
0.000060 0.000360 0.000000
0.000061 0.000370 0.000000
0.000060 0.000381 0.000000
0.000062 0.000391 0.000000
0.000060 0.000399 0.000000
0.000061 0.000410 0.000000
0.000061 0.000421 0.000000
0.000061 0.000430 0.000000
0.000061 0.000440 0.000000
0.000063 0.000450 0.000000
0.000061 0.000461 0.000000
0.000063 0.000471 0.000000
0.000062 0.000480 0.000000
0.000065 0.000490 0.000000
0.000064 0.000502 0.000000
0.000071 0.000508 0.000000
0.000086 0.000532 0.000000
0.000094 0.000550 0.000000
0.000094 0.000561 0.000000
0.000095 0.000573 0.000000
0.000096 0.000587 0.000000
0.000096 0.000598 0.000000
0.000096 0.000609 0.000000
0.000096 0.000619 0.000000
0.000097 0.000629 0.000000
0.000070 0.000300 0.000000
0.000070 0.000310 0.000000
0.000070 0.000320 0.000000
0.000070 0.000330 0.000000
0.000071 0.000341 0.000000
0.000070 0.000350 0.000000
0.000071 0.000360 0.000000
0.000071 0.000371 0.000000
0.000071 0.000380 0.000000
0.000071 0.000390 0.000000
0.000071 0.000401 0.000000
0.000072 0.000411 0.000000
0.000071 0.000420 0.000000
0.000072 0.000430 0.000000
0.000072 0.000441 0.000000
0.000071 0.000450 0.000000
0.000072 0.000460 0.000000
0.000072 0.000470 0.000000
0.000072 0.000480 0.000000
0.000072 0.000492 0.000000
0.000076 0.000498 0.000000
0.000078 0.000513 0.000000
0.000086 0.000525 0.000000
0.000094 0.000537 0.000000
0.000103 0.000561 0.000000
0.000102 0.000574 0.000000
0.000104 0.000585 0.000000
0.000104 0.000596 0.000000
0.000105 0.000608 0.000000
0.000106 0.000619 0.000000
0.000106 0.000629 0.000000
0.000080 0.000300 0.000000
0.000080 0.000310 0.000000
0.000080 0.000320 0.000000
0.000081 0.000330 0.000000
0.000080 0.000340 0.000000
0.000080 0.000350 0.000000
0.000081 0.000361 0.000000
0.000080 0.000369 0.000000
0.000081 0.000380 0.000000
0.000081 0.000391 0.000000
0.000081 0.000400 0.000000
0.000081 0.000409 0.000000
0.000081 0.000420 0.000000
0.000082 0.000431 0.000000
0.000081 0.000440 0.000000
0.000082 0.000450 0.000000
0.000082 0.000461 0.000000
0.000081 0.000470 0.000000
0.000083 0.000480 0.000000
0.000084 0.000488 0.000000
0.000084 0.000502 0.000000
0.000086 0.000512 0.000000
0.000093 0.000520 0.000000
0.000101 0.000546 0.000000
0.000108 0.000557 0.000000
0.000110 0.000573 0.000000
0.000112 0.000584 0.000000
0.000114 0.000597 0.000000
0.000114 0.000607 0.000000
0.000115 0.000618 0.000000
0.000116 0.000628 0.000000
0.000090 0.000300 0.000000
0.000090 0.000310 0.000000
0.000091 0.000320 0.000000
0.000090 0.000330 0.000000
0.000090 0.000340 0.000000
0.000091 0.000351 0.000000
0.000090 0.000360 0.000000
0.000091 0.000370 0.000000
0.000091 0.000381 0.000000
0.000090 0.000390 0.000000
0.000091 0.000400 0.000000
0.000091 0.000411 0.000000
0.000092 0.000420 0.000000
0.000091 0.000429 0.000000
0.000092 0.000440 0.000000
0.000092 0.000451 0.000000
0.000091 0.000459 0.000000
0.000093 0.000469 0.000000
0.000093 0.000481 0.000000
0.000092 0.000492 0.000000
0.000095 0.000500 0.000000
0.000096 0.000509 0.000000
0.000100 0.000527 0.000000
0.000104 0.000537 0.000000
0.000111 0.000547 0.000000
0.000117 0.000569 0.000000
0.000121 0.000581 0.000000
0.000121 0.000594 0.000000
0.000123 0.000606 0.000000
0.000124 0.000617 0.000000
0.000126 0.000627 0.000000
0.000100 0.000300 0.000000
0.000100 0.000310 0.000000
0.000100 0.000320 0.000000
0.000100 0.000330 0.000000
0.000101 0.000340 0.000000
0.000100 0.000349 0.000000
0.000100 0.000360 0.000000
0.000101 0.000371 0.000000
0.000100 0.000379 0.000000
0.000101 0.000390 0.000000
0.000101 0.000401 0.000000
0.000101 0.000410 0.000000
0.000101 0.000419 0.000000
0.000101 0.000431 0.000000
0.000102 0.000441 0.000000
0.000102 0.000449 0.000000
0.000102 0.000460 0.000000
0.000102 0.000471 0.000000
0.000102 0.000480 0.000000
0.000103 0.000489 0.000000
0.000104 0.000499 0.000000
0.000104 0.000512 0.000000
0.000106 0.000522 0.000000
0.000112 0.000531 0.000000
0.000117 0.000556 0.000000
0.000123 0.000567 0.000000
0.000127 0.000581 0.000000
0.000129 0.000593 0.000000
0.000132 0.000605 0.000000
0.000134 0.000616 0.000000
0.000135 0.000626 0.000000
0.000110 0.000300 0.000000
0.000110 0.000310 0.000000
0.000110 0.000320 0.000000
0.000111 0.000330 0.000000
0.000110 0.000340 0.000000
0.000110 0.000350 0.000000
0.000111 0.000361 0.000000
0.000110 0.000369 0.000000
0.000111 0.000380 0.000000
0.000111 0.000391 0.000000
0.000110 0.000399 0.000000
0.000112 0.000410 0.000000
0.000111 0.000421 0.000000
0.000111 0.000430 0.000000
0.000112 0.000439 0.000000
0.000112 0.000450 0.000000
0.000112 0.000461 0.000000
0.000112 0.000469 0.000000
0.000113 0.000480 0.000000
0.000113 0.000491 0.000000
0.000112 0.000502 0.000000
0.000115 0.000511 0.000000
0.000116 0.000520 0.000000
0.000119 0.000536 0.000000
0.000121 0.000546 0.000000
0.000127 0.000556 0.000000
[...]
POINT_DATA 6231
SCALARS density float 1
LOOKUP_TABLE default
4384.257347
4419.641955
4420.446506
4423.213989
4417.663606
4417.920566
4427.783705
4422.335664
4418.837308
4425.465796
4423.029537
4423.279631
4424.592823
4426.876811
4423.370202
4430.972768
4419.950070
4432.859577
4426.834489
4437.955524
4413.662682
4698.908875
4441.259762
4632.569863
4514.340542
4541.590062
4505.362612
4567.766629
4519.851307
4619.797129
4423.114649
4393.241536
4415.731897
4420.293640
4416.765265
4412.771245
4425.398044
4421.715067
4411.388443
4427.885788
4426.114996
4412.973800
4426.480109
4423.606897
4426.005054
4412.935334
4433.418548
4407.728505
4435.026186
4393.301726
4479.962477
4386.253701
4425.677667
4415.966796
4452.895340
4429.680962
4442.184125
4405.293573
4402.235980
4361.967144
4357.494199
4600.305945
4405.462631
4413.526083
4414.691517
4408.831905
4430.212949
4426.446208
4400.914692
4434.185056
4422.544585
4410.977010
4430.010586
4437.358834
4401.295154
4442.343620
4410.584591
4453.894004
4388.772180
4500.303227
4341.712390
4444.473001
4373.947596
4488.198122
4479.396254
4485.666126
4477.051569
4467.584617
4474.099164
4474.339135
4534.584776
4526.998802
4445.235324
4400.283408
4413.108515
4427.560415
4424.477970
4413.255474
4409.444872
4435.045442
4439.148428
4395.136250
4439.496436
4419.169916
4420.799674
4428.288152
4445.800545
4401.939201
4454.502008
4403.636886
4465.082042
4351.049309
4621.190573
4328.564898
4370.289480
4449.561927
4464.825784
4463.817773
4453.870207
4459.027400
4451.511513
4413.232247
4453.904621
4448.571379
4406.332499
4434.507869
4416.055223
4412.865400
4423.717830
4432.717390
4421.814490
4407.038361
4435.695143
4448.075641
4396.319464
4443.234568
4429.272398
4423.279486
4437.227910
4442.378808
4420.972211
4468.489034
4433.047886
4567.864750
4315.023509
4399.758011
4474.953488
4470.642872
4448.163328
4454.785974
4445.842424
4465.046533
4470.945807
4452.037600
4452.720132
4424.218605
4425.642150
4400.781305
4437.132153
4428.052437
4415.062569
4414.262180
4438.502080
4437.448777
4401.314311
4443.027887
4444.641969
4398.609437
4444.965645
4431.367812
4424.433304
4434.911124
4435.513175
4420.554390
4393.021439
4541.428631
4499.119168
4424.994898
4461.718902
4466.405841
4466.353017
4461.035168
4445.158884
4443.041618
4451.482787
4449.112184
4413.759246
4413.151799
4436.198641
4437.503892
4399.116968
4436.954078
4437.941823
4416.051731
4411.198889
4442.922075
4446.220282
4397.928572
4448.076368
4444.897519
4406.796486
4444.475149
4435.242127
4417.952073
4462.952128
4416.283481
4428.599062
4470.336328
4456.500775
4461.790609
4461.139439
4446.183194
4454.322610
4460.603316
4449.906081
4453.643300
4448.207511
4415.708364
4434.570526
4431.021856
4398.104087
4442.261402
4441.283292
4401.485130
4433.962474
4440.468871
4425.655095
4408.076604
4449.112239
4448.434127
4394.765964
4451.240311
4442.200803
4417.254854
4436.338386
4420.770562
4447.647031
4436.067416
4442.875860
4486.136080
4438.317263
4453.569003
4475.482903
4448.930937
4453.848000
4444.229800
4456.954012
4444.160469
4431.159343
4426.518913
4408.276374
4440.775526
4443.279262
4395.778046
4444.922332
4445.338209
4406.152357
4425.275542
4442.723884
4435.923264
4406.462629
4455.012617
4450.204194
4398.476363
4451.083563
4441.033471
4427.200298
4447.496826
4427.633322
4457.795993
4433.597506
4466.438534
4446.518849
4467.845146
4447.116388
4460.272127
4445.078256
4456.703574
4445.307626
4423.202880
4419.849896
4438.640725
4437.871492
4399.673460
4444.350230
4449.220050
4394.509640
4447.455208
4446.734150
4413.538616
4419.023827
4444.551888
4442.457135
4403.498056
4455.943083
4448.341586
4398.529163
4447.997635
4416.457922
4450.825134
4457.066312
4447.970791
4462.854730
4445.197012
4458.005255
4450.404615
4460.263972
4452.288205
4455.995123
4441.645535
4426.048749
4432.406956
4430.179248
4405.845354
4444.522120
4445.851223
4395.953583
4448.330785
4451.490792
4395.609897
4443.669845
4447.184368
4421.806066
4415.766567
4449.887233
4443.235968
4407.238839
4452.574635
4447.987498
4419.525725
4459.070332
4411.618101
4460.515128
4443.802695
4456.943472
4461.132206
4445.523943
4473.377063
4437.968416
4456.645259
4443.463974
4428.051733
4426.289786
4421.095028
4440.504136
4440.371942
4400.081965
4447.509868
4449.132295
4395.008015
4452.715918
4453.172183
4398.490131
4437.393434
4444.429152
4429.784473
4410.583573
4449.649650
4446.958383
4411.041487
4445.042839
4430.937570
4442.843581
4455.758905
4424.096813
4472.664998
4420.146087
4461.596079
4464.566183
4448.704588
4466.288442
4439.240040
4427.709021
4435.225341
4435.219566
4428.580922
4410.416184
4446.321838
4448.676313
4396.922970
4449.004074
4449.775433
4396.053731
4453.737416
4454.112125
4403.920581
4430.314050
4446.397839
4435.622337
4405.081092
4441.116122
4443.991587
4429.623883
4451.197251
4434.384634
4445.893136
4458.049200
4460.609433
4430.960154
4463.499542
4445.341329
4466.615135
4439.445702
4439.118164
4429.509593
4419.892534
4429.423018
4440.806861
4435.084547
4403.839543
4450.112410
4452.650079
4396.058706
4450.609027
4451.151007
4396.029729
4450.678483
4450.587345
4409.034114
4422.561159
4443.516468
4444.541854
4420.724576
4453.958021
4429.705411
4443.128399
4441.796708
4437.033806
4448.911086
4447.172089
4460.099016
4437.346496
4466.125644
4446.606546
4428.341244
4419.778675
4441.636393
4438.532177
4420.946290
4420.299512
4445.726957
4443.703140
4399.579207
4451.845166
4451.795279
4397.755023
4451.754576
4450.929833
4400.000262
4443.740600
4450.144688
4416.607700
4421.182880
4433.848460
4441.180809
4430.889833
4451.544065
4441.992623
4451.270676
4445.455466
4432.609398
4452.804361
4461.832429
4451.705688
4452.713627
4426.817337
4438.511686
4438.827338
4410.279223
4440.197927
4441.941185
4424.285916
4413.911900
4449.329132
4450.182879
4398.362185
4450.875790
4451.105092
4398.354532
4451.112096
4448.352427
4404.729989
4430.216111
4440.185406
4434.088643
4432.204362
4446.533186
4441.806518
4440.470310
4444.462843
4444.427006
4444.873978
4458.883825
4436.674982
4449.562867
4455.379471
4438.917545
4433.369005
4414.471923
4444.626736
4446.239786
4410.285645
4433.797426
4443.856584
4432.644807
4408.059841
4451.894594
4451.094510
4400.565554
4449.805015
4449.377665
4402.126928
4446.315638
4448.054529
4415.935236
4430.721094
4436.842253
4440.757040
4439.347660
4448.478030
4440.019263
4449.486024
4448.055474
4434.835279
4470.521762
4451.801218
4457.058128
4431.588994
4425.916349
4441.258982
4442.541274
4406.065803
4448.069593
4448.869773
4412.527824
4425.858452
4445.512205
4442.463025
4403.703875
4451.333416
4449.630215
4403.024146
4447.991411
4446.326527
4406.333395
4441.800829
4438.483334
4433.979660
4435.881636
4442.012048
4441.434247
4446.420400
4447.220483
4444.671549
4460.551717
4436.928326
4451.693771
4459.426049
4433.237997
4434.886706
4433.108538
4414.449729
4444.569282
4448.859900
4403.319563
4447.883218
4447.852606
4417.805551
4419.602868
4448.751176
4448.770574
4402.934273
4450.974820
4445.187745
4411.205793
4444.982225
4448.386599
4417.295455
4442.237352
4429.097222
4448.433666
4437.386898
4453.631699
4440.442131
4456.839054
4439.794947
4471.554176
4448.920979
4463.327799
4432.746663
4430.133118
4426.908023
4441.616652
4440.816589
4406.959006
4448.385123
4451.777575
4404.869226
4442.233571
4446.001678
4424.741024
4415.863662
4449.088210
4451.573895
4404.253904
4450.039216
4439.896260
4420.183744
4440.054355
4448.023590
4428.917768
4451.268568
4430.369601
4458.550108
4436.148970
4466.839418
4440.494563
4466.729756
4445.669335
4467.735737
4432.106809
4437.301968
4436.916478
4430.295496
4418.419134
4444.953533
4447.585642
4402.765858
4451.280165
4450.855274
4411.021426
4432.548465
4446.522334
4434.055188
4413.414146
4449.211037
4450.217114
4411.350203
4451.439222
4440.011090
4431.159491
4437.682371
4447.566717
4436.056790
4459.732388
4434.007237
4468.447578
4441.071822
4476.746306
4438.990851
4469.905947
4441.278516
4431.797744
4423.829633
4434.001844
4441.874177
4434.046402
4412.264909
4448.131284
4452.448935
4401.952533
4451.072333
4448.745929
4417.407830
4425.291659
4447.931837
4442.425308
4412.997818
4447.926549
4447.217009
4421.636738
4452.671828
4438.025376
4444.903430
4440.203246
4453.703867
4445.111356
4468.498420
4439.915257
4473.488254
4442.209095
4468.509417
4432.512364
4424.858871
4442.734017
4439.346174
4423.033334
4427.323788
4444.393925
4439.981399
4407.815943
4451.323626
4453.311756
4405.349838
4446.001669
4446.173767
4425.074189
4422.089030
4449.782585
4446.262618
4417.623243
4447.762656
4445.871733
4431.557985
4452.927971
4439.570402
4455.673227
4445.060223
4460.597626
4447.014272
4466.367745
4449.231393
4464.618949
4433.031730
4436.810030
4437.712798
4416.510581
4441.798146
4443.462349
4425.441714
4421.757354
4446.086230
4446.086354
4405.563117
4453.473083
4452.280422
4411.066215
4438.011418
4445.389963
4433.989023
4421.403022
4451.361694
4445.687778
4428.416347
4449.726213
4446.437121
4442.956192
4455.341508
4443.239174
4461.195888
4449.287524
4462.875007
4452.990200
4460.060151
4436.192473
4432.530330
4423.869767
4442.938809
4444.147942
4414.591841
4438.418691
4444.884970
4430.294192
4417.228732
4448.583540
4450.025584
4405.973014
4453.436563
4450.286714
4418.007989
4432.284851
4446.284507
4442.635122
4423.637699
4451.908084
4444.239146
4438.590754
4449.685895
4447.842676
4450.676323
4456.878752
4449.221413
4459.551066
4452.739127
4456.455610
4434.415628
4436.108915
4438.750886
4436.518055
4416.107103
4446.833224
4448.041586
4415.449198
4433.104342
4445.224800
4437.366945
4413.922687
4451.310440
4450.871507
4409.328119
4449.511279
4448.122518
4425.849879
4430.770407
4447.977213
4447.837693
4431.063799
4452.430085
4444.186215
4448.301689
4450.497857
4450.434800
4454.834780
4454.572078
4453.320421
4453.945283
4441.656949
4433.145954
4427.354059
4430.948905
4441.389194
4441.344111
4411.550629
4448.492540
4449.101487
4419.125186
4427.543137
4445.876850
4444.407033
4412.456723
4452.989131
4450.276361
4415.240035
4443.277624
4447.139588
4433.873502
4431.726494
4448.374186
4448.281911
4439.097884
4451.398671
4445.880998
4452.664997
4450.558356
4450.997910
4452.080519
4451.887999
4433.687709
4426.070228
4440.675251
4439.825799
4428.964897
4423.917685
4444.792262
4446.854470
4409.938369
4446.650793
4447.529312
4425.065614
4423.169875
4448.196269
4448.986896
4413.049614
4452.711899
4448.488694
4423.186128
4438.656039
4446.992946
4441.390983
4435.047595
4448.747110
4447.182981
4446.586751
4450.107550
4447.290460
4452.373699
4449.858927
4450.249397
4432.337214
4438.985548
4439.316393
4420.166162
4437.956669
4442.323899
4432.666725
4417.960996
4448.371222
4450.915799
4411.357490
4441.651584
4446.353454
4431.989313
4420.615284
4450.751548
4449.976486
4416.577137
4449.517287
4446.561262
4431.622235
4437.141993
4446.519779
4446.350507
4440.056377
4448.252018
4445.580604
4449.291035
4447.617533
4449.140465
4449.105303
4440.437177
4435.379246
4421.331752
4443.543228
4444.178315
4420.306580
4433.810702
4443.626771
4438.768248
4413.588181
4451.103358
4451.038220
4415.938959
4434.889005
4446.064365
4439.945191
4419.570171
4451.770303
4448.221619
4423.276511
4444.780052
4445.024032
4439.001691
4438.713704
4445.443802
4447.364259
4444.423983
4447.649413
4446.861596
4448.746260
4447.531650
4435.656576
4430.790992
4440.994049
4441.489660
4415.580590
4444.900616
4445.695580
4422.425538
4428.315930
4445.097249
4445.613322
4411.615037
4450.374528
4448.857452
4422.657997
4429.640195
4446.877965
4445.220383
4420.292500
4451.128233
4445.406114
4430.996510
4441.065120
4444.093952
4443.955409
4441.351488
4445.736950
4446.347652
4446.407249
4448.228386
4445.029967
4437.822072
4435.024909
4434.063565
4423.143848
4443.114822
4445.871552
4413.576173
4444.107752
4445.008585
4427.183890
4422.548786
4448.102356
4450.574347
4412.946366
4445.569884
4446.379283
4429.832410
4427.316986
4448.137883
4446.609870
4424.831948
4448.761575
4443.048356
4438.456587
4441.320990
4444.009826
4445.829608
4444.631781
4446.215859
4446.488946
4445.153899
4435.284261
4430.282179
4433.590346
4440.428385
4438.542167
4417.288189
4445.906834
4448.231907
4414.420182
4440.519888
4444.289339
4433.779092
4418.014219
4450.830881
4451.044883
4417.648400
4439.187189
4444.871460
4437.446978
4426.909222
4448.303940
4445.075527
4431.160403
4445.838946
4442.158594
4442.854956
4442.853378
4443.870881
4446.937874
4445.041693
4444.194810
4433.450125
4438.543192
4438.087763
4429.475614
4428.337317
4442.945583
4442.620310
4413.467272
4448.019301
4448.000157
4418.215568
4434.562267
4444.801964
4440.942503
4416.001737
4450.458572
4448.222605
4424.157372
4434.250476
4444.522990
4442.587502
4428.906901
4448.108340
4443.024855
4437.565569
4444.074321
4443.150857
4445.172384
4444.022989
4445.903618
4441.595805
4442.385496
4435.927163
4424.759998
4438.981744
4440.964214
4431.158557
4423.722899
4445.126665
4446.698629
4412.046259
4447.673380
4446.248090
4424.080744
4428.442735
4446.354136
4446.216295
4417.489459
4447.069514
4444.930507
4431.153091
4432.776132
4444.922318
4444.209143
4433.035127
4447.097792
4442.663553
4441.395684
4444.452561
4443.578413
4445.468595
4442.108120
4435.738751
4426.243422
4440.971333
4441.504079
4422.572752
4436.429133
4442.474918
4434.431285
4419.139600
4447.471666
4448.845718
4413.864100
4443.842508
4444.652424
4430.818687
4424.259712
4447.900116
4447.099250
4422.186412
4442.577308
4442.781332
4437.408716
4433.434773
4445.652045
4443.327125
4437.785314
4445.558110
4442.445544
4444.098919
4443.789922
4440.462999
4432.960817
4438.014064
4440.124988
4420.212004
4441.389359
4444.079911
4422.712834
4433.356909
4443.008000
4438.949727
4415.867200
4449.270539
4448.199170
4418.378304
4438.445905
4444.386119
4437.731385
4422.888420
4447.677764
4444.933196
4428.574952
4439.378335
4442.244814
4441.273180
4435.634481
4445.394249
4442.683292
4441.176458
4444.068353
4442.823152
4440.189599
4440.807297
4435.828772
4423.716610
4441.088687
4444.325309
4417.215547
4441.841298
4444.455048
4425.506385
4429.645721
4444.023705
4442.892943
4414.933127
4448.822241
4445.859360
4424.294668
4433.083402
4444.729982
4442.405145
4424.638571
4445.922790
4442.411214
4434.766428
4438.441046
4442.643614
4442.566339
4437.992139
4444.627073
4442.679640
4442.686161
4440.309532
4435.525138
4428.260568
4440.258972
4441.383880
4418.887139
4442.983756
4446.400607
4416.382395
4440.917830
4443.570095
4429.723973
4425.564645
4445.710070
4445.552404
4416.858414
4445.799658
4443.786515
4430.669839
4429.903184
4445.397600
4443.601137
4428.892367
4443.423911
4441.258360
4438.933699
4438.667754
4443.115951
4442.251788
4439.852649
4442.899799
4438.053325
4434.698998
4437.049306
4437.728377
4422.527756
4441.004527
4444.573770
4415.531669
4444.824518
4446.570536
4418.367323
4438.486973
4443.019024
4434.316468
4422.299607
4446.814313
4445.462009
4421.230300
4441.596980
4442.702946
4436.265353
4429.183913
4445.137918
4442.302888
4433.715175
4441.833854
4440.926053
4440.872303
4439.798316
4442.408868
4442.014821
4439.001831
4437.776064
4433.904513
4427.194298
4440.724737
4441.773939
4418.829732
4442.781290
4446.021955
4414.174509
4445.416771
4445.358232
4422.191768
4435.078186
4443.177132
4438.731371
4421.415494
4446.638404
4443.635061
4426.920594
4437.728475
4442.732206
4439.931958
4430.853760
4444.045548
4440.758962
4437.661282
4440.819189
4440.675233
4442.037363
4439.733049
4438.731871
4435.450405
4433.924844
4438.568944
4437.217080
4422.491810
4442.513089
4444.012119
4416.314290
4444.484804
4446.091958
4415.369958
4444.397681
4443.708376
4426.909645
4431.435187
4443.809192
4441.463396
4422.853543
4444.788521
4441.894445
4432.441468
4435.346920
4442.699388
4441.007482
4433.870198
4442.502971
4440.242198
4439.781809
4439.961030
4440.605372
4437.410215
4438.927150
4433.911128
4431.669721
4430.002267
4440.153898
4439.928370
4419.478743
4444.058727
4444.904300
4415.503855
4445.181320
4445.270887
4418.382692
4442.247768
4442.330741
4431.710065
4428.721359
4444.525165
4442.008002
4426.509332
4442.078636
4440.919926
4436.759576
4434.722624
4442.346398
4440.578013
4436.386100
4441.803403
4439.633568
4440.796574
4438.048401
4434.855925
4428.984099
4436.996229
4438.552151
4433.240974
4426.309445
4441.767529
4442.049610
4417.541955
4445.192125
4444.668974
4416.503774
4444.958570
4443.762568
4422.535350
4439.328960
4441.683758
4435.807920
4427.840696
4444.246818
4441.043208
4430.832105
4439.682556
4440.559659
4438.807622
4435.796462
4441.489857
4439.563404
4438.661273
4439.741876
4436.729016
4433.001658
4437.890690
4437.800464
4426.674893
4434.155706
4440.498400
4435.241098
4423.514731
4443.190034
4442.987440
4417.253751
4445.426948
4443.859619
4418.854580
4444.160888
4442.101580
4427.266654
4436.114208
4441.649725
4438.537927
4428.965844
4442.960668
4439.904689
4434.677197
4438.224195
4440.009111
4439.524026
4437.117133
4440.369652
4439.233752
4436.831164
4439.818513
4435.495426
4424.863076
4439.516717
4440.537539
4426.859636
4431.980868
4441.249556
4437.624097
4421.481870
4444.178516
4442.766072
4418.446853
4444.990126
4442.539981
4422.136805
4442.543462
4440.811225
4431.715518
4433.864599
4441.569103
4439.345449
4431.430955
4441.124473
4439.149875
4437.311999
4437.567535
4439.733260
4439.522325
4438.010255
4437.287129
4435.127972
4428.655209
4439.206561
4440.282317
4422.011480
4439.284469
4441.451529
4428.263291
4429.871205
4441.899310
4439.500934
4420.758189
4444.386008
4441.994815
4420.680467
4444.298500
4441.004877
4426.014263
4440.254617
4440.006578
4435.152523
4433.120255
4441.189883
4439.164903
4433.958841
4439.727768
4438.649421
4438.349787
4437.447089
4438.742854
4435.788013
4433.984672
4436.231199
4437.107570
4423.509833
4439.600879
4442.650501
4420.970800
4438.646015
4441.211025
4430.676545
4427.696615
4442.599912
4440.404532
4421.357706
4443.981847
4440.836132
4423.530697
4443.229684
4439.670680
4429.868056
4438.071207
4439.628952
4437.000885
4433.689059
4440.336756
4438.518326
4435.934750
4439.114081
4437.998078
4438.841727
4436.242635
4437.076664
4433.716854
4427.611239
4439.202514
4440.732901
4420.385108
4440.794166
4443.179740
4421.845207
4437.184590
4440.888356
4433.365723
4426.191780
4442.873822
4440.371577
4423.077850
4443.283850
4439.533779
4426.728292
4441.678408
4438.747975
4433.134897
4436.554690
4439.294330
4437.626688
4435.024592
4439.220186
4437.797517
4437.587739
4437.548304
4435.766725
4434.631404
4432.581952
4437.635394
4436.706885
4423.617998
4440.510045
4442.681641
4418.740724
4441.474677
4442.389550
4424.344815
4434.901239
4440.612235
4435.752788
4425.730954
4442.651989
4439.619614
4425.539254
4442.321942
4438.384908
4429.924307
4439.808977
4438.170604
4435.369079
4436.011130
4438.692736
4437.831506
4436.021830
4438.307697
4437.447439
4435.396299
4436.822933
4433.679940
4432.587604
4429.026359
4438.781861
4439.201511
4420.879934
4441.771755
4443.198407
4419.125472
4440.935154
4441.296485
4427.650173
4432.799393
4440.341539
4437.267750
4426.333013
4442.046587
4438.566736
4428.261777
4441.114418
4437.619153
4432.658186
4438.199775
4437.866793
4436.475675
4435.963528
4438.271986
4437.534057
4436.859598
4435.886289
4434.323571
4429.962668
4434.687375
4437.357225
4434.314497
4425.965702
4439.976445
4440.992079
4419.173065
4442.581646
4442.471506
4421.136579
4439.417151
4440.122347
4430.845810
4431.411534
4440.172080
4437.741118
4427.803768
4441.202228
4437.472014
4430.885580
4439.680561
4437.210101
4434.449718
4437.391294
4437.468556
4436.817418
4436.238264
4437.113412
4434.826531
4432.645027
4436.470913
4436.210538
4429.032918
4431.868002
4438.781440
4436.108257
4423.636564
4441.122940
4441.606207
4419.261708
4442.478579
4441.227260
4424.134071
4437.635130
4439.148095
4433.329305
4430.888075
4439.839023
4437.501784
4429.787916
4440.202803
4436.637242
4433.137502
4438.299570
4436.882840
4435.526058
4437.032109
4436.855066
4437.061508
4434.981071
4438.133566
4434.754289
4426.436544
4437.180351
4438.147542
4429.808174
4429.983936
4439.406230
4437.894735
4421.971490
4441.746718
4441.139305
4420.831997
4441.577743
4439.765223
4427.464382
4435.939765
4438.513476