# vtk DataFile Version 2.0
mfree iwf
ASCII

DATASET UNSTRUCTURED_GRID
POINTS 6231 float
0.000000 0.000300 0.000000
0.000000 0.000310 0.000000
0.000000 0.000320 0.000000
0.000000 0.000330 0.000000
0.000000 0.000340 0.000000
0.000001 0.000350 0.000000
0.000001 0.000360 0.000000
0.000001 0.000370 0.000000
0.000001 0.000380 0.000000
0.000001 0.000391 0.000000
0.000001 0.000401 0.000000
0.000001 0.000411 0.000000
0.000001 0.000421 0.000000
0.000001 0.000431 0.000000
0.000002 0.000441 0.000000
0.000002 0.000451 0.000000
0.000002 0.000461 0.000000
0.000002 0.000471 0.000000
0.000002 0.000480 0.000000
0.000002 0.000492 0.000000
0.000006 0.000501 0.000000
0.000259 0.000603 0.000000
0.000263 0.000682 0.000000
0.000260 0.000619 0.000000
0.000265 0.000696 0.000000
0.000271 0.000718 0.000000
0.000294 0.000762 0.000000
0.000297 0.000766 0.000000
0.000308 0.000775 0.000000
0.000318 0.000785 0.000000
0.000344 0.000813 0.000000
0.000010 0.000300 0.000000
0.000010 0.000310 0.000000
0.000010 0.000320 0.000000
0.000010 0.000330 0.000000
0.000010 0.000340 0.000000
0.000011 0.000350 0.000000
0.000011 0.000360 0.000000
0.000011 0.000370 0.000000
0.000011 0.000380 0.000000
0.000011 0.000390 0.000000
0.000011 0.000400 0.000000
0.000011 0.000411 0.000000
0.000011 0.000420 0.000000
0.000011 0.000430 0.000000
0.000012 0.000440 0.000000
0.000012 0.000451 0.000000
0.000012 0.000460 0.000000
0.000012 0.000472 0.000000
0.000013 0.000478 0.000000
0.000010 0.000492 0.000000
0.000013 0.000498 0.000000
0.000283 0.000732 0.000000
0.000289 0.000743 0.000000
0.000294 0.000751 0.000000
0.000299 0.000756 0.000000
0.000314 0.000769 0.000000
0.000320 0.000776 0.000000
0.000330 0.000786 0.000000
0.000336 0.000795 0.000000
0.000340 0.000801 0.000000
0.000341 0.000808 0.000000
0.000020 0.000300 0.000000
0.000020 0.000310 0.000000
0.000020 0.000320 0.000000
0.000020 0.000330 0.000000
0.000020 0.000340 0.000000
0.000021 0.000351 0.000000
0.000020 0.000360 0.000000
0.000021 0.000370 0.000000
0.000020 0.000380 0.000000
0.000021 0.000390 0.000000
0.000021 0.000400 0.000000
0.000022 0.000410 0.000000
0.000021 0.000420 0.000000
0.000023 0.000431 0.000000
0.000020 0.000440 0.000000
0.000024 0.000451 0.000000
0.000021 0.000460 0.000000
0.000022 0.000470 0.000000
0.000021 0.000481 0.000000
0.000024 0.000494 0.000000
0.000020 0.000497 0.000000
0.000276 0.000699 0.000000
0.000284 0.000723 0.000000
0.000288 0.000736 0.000000
0.000296 0.000742 0.000000
0.000308 0.000745 0.000000
0.000312 0.000760 0.000000
0.000329 0.000777 0.000000
0.000336 0.000789 0.000000
0.000348 0.000794 0.000000
0.000354 0.000800 0.000000
0.000030 0.000300 0.000000
0.000030 0.000310 0.000000
0.000030 0.000320 0.000000
0.000030 0.000330 0.000000
0.000030 0.000340 0.000000
0.000031 0.000350 0.000000
0.000030 0.000360 0.000000
0.000031 0.000370 0.000000
0.000031 0.000380 0.000000
0.000032 0.000390 0.000000
0.000030 0.000400 0.000000
0.000032 0.000411 0.000000
0.000031 0.000420 0.000000
0.000032 0.000430 0.000000
0.000032 0.000440 0.000000
0.000030 0.000450 0.000000
0.000032 0.000459 0.000000
0.000037 0.000473 0.000000
0.000030 0.000478 0.000000
0.000033 0.000488 0.000000
0.000032 0.000497 0.000000
0.000063 0.000500 0.000000
0.000290 0.000721 0.000000
0.000299 0.000730 0.000000
0.000311 0.000754 0.000000
0.000326 0.000755 0.000000
0.000322 0.000764 0.000000
0.000332 0.000768 0.000000
0.000339 0.000775 0.000000
0.000347 0.000783 0.000000
0.000361 0.000793 0.000000
0.000040 0.000300 0.000000
0.000040 0.000310 0.000000
0.000040 0.000320 0.000000
0.000040 0.000329 0.000000
0.000040 0.000340 0.000000
0.000040 0.000351 0.000000
0.000041 0.000360 0.000000
0.000041 0.000369 0.000000
0.000041 0.000380 0.000000
0.000040 0.000390 0.000000
0.000042 0.000399 0.000000
0.000041 0.000410 0.000000
0.000042 0.000420 0.000000
0.000040 0.000431 0.000000
0.000043 0.000439 0.000000
0.000043 0.000450 0.000000
0.000043 0.000460 0.000000
0.000037 0.000470 0.000000
0.000045 0.000478 0.000000
0.000043 0.000496 0.000000
0.000040 0.000498 0.000000
0.000260 0.000536 0.000000
0.000301 0.000720 0.000000
0.000308 0.000734 0.000000
0.000315 0.000738 0.000000
0.000319 0.000747 0.000000
0.000335 0.000755 0.000000
0.000347 0.000771 0.000000
0.000356 0.000774 0.000000
0.000357 0.000784 0.000000
0.000367 0.000787 0.000000
0.000050 0.000300 0.000000
0.000050 0.000310 0.000000
0.000050 0.000319 0.000000
0.000050 0.000331 0.000000
0.000051 0.000340 0.000000
0.000050 0.000349 0.000000
0.000052 0.000360 0.000000
0.000049 0.000371 0.000000
0.000053 0.000379 0.000000
0.000050 0.000390 0.000000
0.000053 0.000401 0.000000
0.000049 0.000411 0.000000
0.000054 0.000420 0.000000
0.000050 0.000430 0.000000
0.000054 0.000440 0.000000
0.000047 0.000451 0.000000
0.000055 0.000459 0.000000
0.000053 0.000470 0.000000
0.000056 0.000483 0.000000
0.000049 0.000488 0.000000
0.000050 0.000498 0.000000
0.000278 0.000716 0.000000
0.000266 0.000673 0.000000
0.000310 0.000725 0.000000
0.000325 0.000737 0.000000
0.000332 0.000747 0.000000
0.000340 0.000762 0.000000
0.000345 0.000753 0.000000
0.000351 0.000762 0.000000
0.000364 0.000774 0.000000
0.000374 0.000778 0.000000
0.000060 0.000300 0.000000
0.000060 0.000310 0.000000
0.000061 0.000321 0.000000
0.000060 0.000329 0.000000
0.000061 0.000339 0.000000
0.000059 0.000351 0.000000
0.000062 0.000360 0.000000
0.000060 0.000369 0.000000
0.000063 0.000381 0.000000
0.000058 0.000390 0.000000
0.000064 0.000399 0.000000
0.000059 0.000409 0.000000
0.000064 0.000419 0.000000
0.000058 0.000431 0.000000
0.000066 0.000441 0.000000
0.000060 0.000449 0.000000
0.000066 0.000460 0.000000
0.000055 0.000471 0.000000
0.000065 0.000475 0.000000
0.000068 0.000486 0.000000
0.000059 0.000496 0.000000
0.000274 0.000709 0.000000
0.000291 0.000713 0.000000
0.000316 0.000721 0.000000
0.000324 0.000727 0.000000
0.000334 0.000737 0.000000
0.000345 0.000744 0.000000
0.000360 0.000755 0.000000
0.000362 0.000762 0.000000
0.000371 0.000766 0.000000
0.000380 0.000771 0.000000
0.000070 0.000300 0.000000
0.000070 0.000310 0.000000
0.000070 0.000319 0.000000
0.000070 0.000330 0.000000
0.000071 0.000342 0.000000
0.000069 0.000349 0.000000
0.000072 0.000360 0.000000
0.000068 0.000371 0.000000
0.000073 0.000378 0.000000
0.000070 0.000390 0.000000
0.000074 0.000401 0.000000
0.000068 0.000411 0.000000
0.000075 0.000422 0.000000
0.000067 0.000429 0.000000
0.000075 0.000437 0.000000
0.000066 0.000452 0.000000
0.000078 0.000459 0.000000
0.000072 0.000470 0.000000
0.000076 0.000486 0.000000
0.000068 0.000496 0.000000
0.000076 0.000496 0.000000
0.000259 0.000523 0.000000
0.000288 0.000703 0.000000
0.000307 0.000712 0.000000
0.000332 0.000723 0.000000
0.000342 0.000734 0.000000
0.000352 0.000739 0.000000
0.000357 0.000747 0.000000
0.000367 0.000750 0.000000
0.000376 0.000759 0.000000
0.000386 0.000763 0.000000
0.000080 0.000300 0.000000
0.000080 0.000310 0.000000
0.000080 0.000320 0.000000
0.000081 0.000330 0.000000
0.000080 0.000339 0.000000
0.000081 0.000350 0.000000
0.000080 0.000360 0.000000
0.000080 0.000369 0.000000
0.000082 0.000382 0.000000
0.000078 0.000391 0.000000
0.000084 0.000397 0.000000
0.000079 0.000409 0.000000
0.000083 0.000417 0.000000
0.000079 0.000431 0.000000
0.000087 0.000446 0.000000
0.000077 0.000447 0.000000
0.000085 0.000464 0.000000
0.000075 0.000470 0.000000
0.000087 0.000473 0.000000
0.000086 0.000482 0.000000
0.000084 0.000495 0.000000
0.000271 0.000699 0.000000
0.000260 0.000671 0.000000
0.000319 0.000712 0.000000
0.000329 0.000716 0.000000
0.000342 0.000725 0.000000
0.000355 0.000731 0.000000
0.000363 0.000735 0.000000
0.000374 0.000747 0.000000
0.000382 0.000751 0.000000
0.000392 0.000755 0.000000
0.000090 0.000300 0.000000
0.000090 0.000310 0.000000
0.000090 0.000320 0.000000
0.000090 0.000329 0.000000
0.000090 0.000340 0.000000
0.000091 0.000351 0.000000
0.000090 0.000360 0.000000
0.000092 0.000370 0.000000
0.000089 0.000379 0.000000
0.000092 0.000389 0.000000
0.000091 0.000403 0.000000
0.000091 0.000411 0.000000
0.000089 0.000424 0.000000
0.000097 0.000427 0.000000
0.000088 0.000435 0.000000
0.000097 0.000456 0.000000
0.000087 0.000453 0.000000
0.000098 0.000471 0.000000
0.000106 0.000480 0.000000
0.000089 0.000495 0.000000
0.000095 0.000495 0.000000
0.000260 0.000547 0.000000
0.000287 0.000697 0.000000
0.000277 0.000689 0.000000
0.000300 0.000707 0.000000
0.000344 0.000716 0.000000
0.000356 0.000722 0.000000
0.000369 0.000735 0.000000
0.000378 0.000737 0.000000
0.000388 0.000743 0.000000
0.000397 0.000747 0.000000
0.000100 0.000300 0.000000
0.000100 0.000310 0.000000
0.000100 0.000320 0.000000
0.000100 0.000331 0.000000
0.000101 0.000340 0.000000
0.000100 0.000349 0.000000
0.000101 0.000359 0.000000
0.000101 0.000371 0.000000
0.000100 0.000380 0.000000
0.000102 0.000390 0.000000
0.000099 0.000399 0.000000
0.000103 0.000408 0.000000
0.000101 0.000417 0.000000
0.000100 0.000436 0.000000
0.000109 0.000443 0.000000
0.000097 0.000445 0.000000
0.000107 0.000460 0.000000
0.000098 0.000467 0.000000
0.000094 0.000481 0.000000
0.000107 0.000491 0.000000
0.000101 0.000494 0.000000
0.000260 0.000625 0.000000
0.000260 0.000630 0.000000
0.000260 0.000665 0.000000
0.000336 0.000709 0.000000
0.000350 0.000713 0.000000
0.000362 0.000719 0.000000
0.000373 0.000725 0.000000
0.000380 0.000726 0.000000
0.000391 0.000736 0.000000
0.000402 0.000739 0.000000
0.000110 0.000300 0.000000
0.000110 0.000310 0.000000
0.000110 0.000321 0.000000
0.000110 0.000329 0.000000
0.000110 0.000340 0.000000
0.000111 0.000351 0.000000
0.000111 0.000361 0.000000
0.000110 0.000368 0.000000
0.000111 0.000379 0.000000
0.000110 0.000390 0.000000
0.000112 0.000401 0.000000
0.000110 0.000414 0.000000
0.000116 0.000423 0.000000
0.000106 0.000427 0.000000
0.000113 0.000433 0.000000
0.000107 0.000449 0.000000
0.000116 0.000461 0.000000
0.000111 0.000471 0.000000
0.000116 0.000480 0.000000
0.000111 0.000493 0.000000
0.000119 0.000492 0.000000
0.000260 0.000581 0.000000
0.000260 0.000565 0.000000
0.000287 0.000687 0.000000
0.000309 0.000702 0.000000
0.000309 0.000694 0.000000
[...]
POINT_DATA 6231
SCALARS density float 1
LOOKUP_TABLE default
4399.099084
4424.145188
4418.988065
4421.664354
4425.872452
4424.683733
4425.253919
4425.824771
4427.497776
4428.555415
4424.452372
4427.981142
4429.444440
4430.107021
4430.439340
4440.667965
4422.621025
4432.081499
4412.879267
4423.448439
4411.440947
4643.266354
4418.993076
4456.303952
4437.021394
4441.676463
4404.942266
4438.819352
4434.751768
4450.781688
4417.539833
4405.365556
4421.381783
4421.870413
4426.657987
4421.786819
4425.061738
4424.856110
4420.522346
4427.718913
4431.704511
4428.058717
4434.894738
4425.821797
4436.309959
4415.499997
4428.168305
4410.149961
4443.650181
4461.151911
4460.206353
4415.425042
4393.200601
4387.865095
4401.628389
4454.829533
4392.752813
4406.249027
4416.110532
4414.393672
4432.866189
4462.916664
4415.105586
4426.087867
4421.624983
4423.689083
4419.762959
4427.002891
4426.987073
4438.753078
4423.356177
4420.676326
4427.528799
4429.768810
4412.737335
4442.438382
4415.544975
4475.232703
4398.913725
4453.314705
4352.572729
4450.294235
4419.993450
4422.451918
4397.580425
4393.271264
4518.146663
4338.499611
4428.638845
4466.153253
4412.860087
4432.603291
4396.744399
4417.601217
4419.554540
4423.388567
4422.811065
4434.708736
4433.339224
4414.935583
4425.051018
4416.349250
4448.343491
4411.539421
4440.018095
4425.516499
4443.507203
4400.924000
4433.678308
4389.845262
4457.362723
4370.094295
4555.467558
4370.045183
4431.204386
4523.411408
4471.851681
4448.028278
4379.141227
4478.147687
4414.327835
4416.752193
4500.760123
4447.718263
4424.466175
4427.483652
4437.309829
4429.537959
4419.261455
4421.509349
4433.250257
4442.084026
4414.342496
4440.455165
4398.597079
4450.869498
4394.290467
4443.450068
4415.926225
4448.604049
4386.067961
4508.233172
4310.219440
4420.122886
4384.126921
4527.028857
4359.575084
4375.603639
4477.345380
4467.488881
4438.344917
4390.914030
4435.293858
4368.925858
4425.226470
4434.994804
4422.082631
4415.757215
4423.581326
4435.564576
4439.342469
4408.969445
4430.554716
4420.220273
4438.372383
4428.469959
4445.672291
4399.554424
4466.644798
4358.009372
4478.609850
4357.328242
4481.375033
4362.234304
4536.477838
4383.325423
4434.727750
4411.408168
4488.236253
4432.473308
4407.825726
4459.653547
4409.032284
4406.061177
4444.898159
4416.434463
4421.637173
4427.215367
4439.339570
4438.847022
4414.268912
4428.978035
4433.173186
4436.826597
4415.885367
4437.748526
4409.176265
4435.841682
4429.419644
4444.392254
4421.186923
4476.323559
4401.446430
4516.117976
4369.368823
4484.035258
4431.355669
4416.998993
4364.384183
4436.769813
4407.265190
4427.627937
4447.695678
4452.336297
4444.491019
4401.623218
4447.019585
4421.747899
4431.515396
4422.835594
4411.491007
4445.609057
4428.588233
4421.976009
4436.103150
4415.712898
4434.352991
4427.182951
4424.285844
4422.197113
4422.284991
4450.492726
4458.894391
4443.184101
4463.483352
4446.006529
4412.159933
4385.799971
4576.762466
4460.716855
4459.369310
4460.485363
4444.132524
4449.685921
4400.537499
4443.360439
4404.108037
4422.124322
4426.207530
4428.569631
4413.983011
4441.149846
4434.720744
4410.224477
4447.087532
4420.097244
4441.898810
4436.971966
4395.573318
4425.400307
4419.674849
4437.826027
4464.174369
4388.914230
4454.454697
4450.153347
4353.233322
4472.235746
4412.524727
4424.471764
4416.194464
4396.891678
4447.651478
4405.961819
4417.077547
4441.616149
4439.950290
4436.979585
4426.435369
4425.048847
4434.846939
4435.989922
4425.233845
4404.999022
4442.172128
4430.805664
4416.401746
4442.117628
4412.600501
4446.564413
4415.850298
4416.212306
4466.050279
4412.673091
4381.662116
4440.194593
4437.115277
4427.378337
4426.263947
4411.671186
4531.775465
4448.457787
4425.817710
4465.680898
4444.621026
4434.880492
4461.879979
4393.159429
4430.902770
4425.708339
4432.343696
4426.505867
4417.453312
4427.294393
4445.339071
4437.131335
4410.471808
4431.001318
4425.420586
4419.507043
4445.198233
4421.182464
4414.239889
4389.493340
4437.745618
4449.129585
4410.584328
4471.523900
4423.048052
4436.274240
4416.500722
4458.943591
4484.868945
4418.843083
4385.230308
4449.920106
4447.186969
4431.570244
4455.200845
4435.605341
4408.408026
4430.628726
4422.791338
4441.435636
4434.094816
4410.965155
4410.137303
4449.391692
4443.091879
4410.965228
4439.385365
4407.005032
4449.157701
4406.874123
4442.233698
4416.929647
4448.842886
4472.351259
4388.474878
4460.643510
4406.074531
4416.142472
4568.604985
4532.275262
4417.576845
4405.042049
4448.274085
4432.813484
4446.127102
4461.089626
4411.370654
4429.535437
4432.482729
4421.787180
4430.120115
4410.710395
4438.451027
4450.574015
4402.648328
4410.477596
4438.875413
4435.436513
4408.112237
4444.227541
4424.242863
4450.724831
4421.867655
4370.194233
4430.212352
4391.416779
4422.472820
4438.870838
4397.336017
4463.335667
4433.946137
4428.293933
4460.282233
4447.665858
4379.489758
4429.712346
4390.958251
4428.434995
4408.669518
4425.896765
4435.247996
4423.493644
4434.819464
4425.838248
4407.756904
4439.001891
4441.476274
4425.367155
4399.446976
4438.099105
4408.784985
4445.956153
4409.094297
4406.671739
4439.557878
4420.423098
4445.483157
4488.634429
4422.398369
4439.446015
4374.947273
4399.067001
4403.111918
4439.119065
4421.191722
4431.201071
4442.954181
4444.569986
4460.511565
4412.709648
4426.014134
4440.393036
4428.468818
4416.068412
4420.600767
4430.859004
4438.475819
4402.548791
4430.310622
4429.779893
4442.724386
4407.532010
4426.912016
4403.347796
4445.212030
4381.388672
4408.720056
4498.591068
4577.001228
4390.601983
4372.459653
4411.106354
4396.340294
4491.678980
4473.993852
4385.364716
4469.720364
4446.364485
4441.069888
4427.292723
4441.533939
4426.667624
4423.252913
4424.145855
4440.761653
4429.758252
4411.169740
4413.745326
4444.366292
4434.894005
4394.169753
4427.497040
4426.218137
4432.628296
4393.986355
4449.174774
4415.184740
4485.031465
4355.436165
4330.061821
4506.104768
4398.061715
4460.731217
4405.907456
4422.078072
4476.552536
4385.434258
4449.297892
4407.381338
4406.541248
4414.245636
4411.469043
4426.116486
4439.135547
4431.120842
4423.530444
4417.837500
4439.647457
4433.231680
4406.718153
4415.713347
4442.897767
4437.723047
4397.740591
4440.485573
4412.520923
4433.719889
4417.194890
4414.138544
4492.748424
4482.886336
4425.877880
4408.626722
4482.509333
4461.874090
4420.337501
4447.830503
4377.503086
4420.125479
4437.970656
4413.930758
4439.703500
4420.731188
4436.282059
4429.799655
4411.271634
4430.646419
4435.128463
4421.221658
4416.363790
4435.434742
4433.614359
4408.097403
4415.066731
4445.812442
4410.959368
4443.799524
4386.300804
4452.027352
4402.173550
4469.211597
4331.581324
4360.281842
4433.247151
4412.709965
4446.142621
4456.903556
4398.261287
4457.935897
4459.058079
4438.965128
4445.072850
4427.106850
4426.254863
4425.106529
4418.594805
4438.752088
4450.460433
4405.209115
4428.933981
4436.237783
4422.996306
4412.038300
4440.720672
4426.290599
4420.901070
4404.564023
4438.208434
4400.057563
4443.713925
4330.777775
4479.030692
4392.186707
4453.232857
4399.259438
4423.528157
4400.794954
4480.258763
4485.434296
4395.313710
4435.581843
4448.473862
4423.139279
4424.291504
4424.456674
4420.908828
4435.775024
4431.135201
4403.350094
4431.621048
4450.588010
4393.518753
4434.011086
4427.302015
4432.975132
4397.352496
4450.572507
4398.994723
4441.038640
4397.905164
4445.778980
4464.023819
4480.343301
4429.086814
4564.245119
4384.408005
4463.607603
4458.333565
4441.834495
4443.258373
4371.342833
4432.820467
4425.791886
4448.370659
4428.460587
4399.558392
4426.116091
4428.399664
4410.317463
4441.617574
4446.463691
4404.488753
4429.015944
4449.872516
4384.484427
4436.536120
4430.376253
4439.210258
4391.462603
4430.951466
4434.005252
4397.853503
4400.351699
4465.475870
4368.420691
4402.309909
4630.352399
4412.692964
4510.961359
4509.859880
4437.293598
4420.201935
4438.185427
4434.132190
4453.854348
4402.571259
4382.935653
4423.419187
4431.932052
4432.986085
4435.976491
4390.622089
4439.929686
4446.082744
4398.693440
4429.862791
4443.942943
4400.867385
4413.883177
4444.770238
4408.041918
4412.369651
4473.806326
4397.077951
4472.723153
4391.851378
4475.471882
4410.587101
4446.116265
4504.522342
4412.921981
4419.913592
4420.885458
4453.623639
4454.528535
4389.535031
4413.424632
4441.400899
4431.307204
4419.700571
4419.875952
4414.364582
4446.926680
4439.911746
4387.367258
4432.521863
4446.335926
4382.146620
4435.474268
4444.182979
4415.349986
4437.846508
4405.019798
4415.650088
4390.562587
4445.537935
4406.704656
4465.513389
4428.092988
4437.505528
4464.507573
4454.333567
4427.583521
4444.305301
4463.462266
4402.079100
4479.571097
4407.183503
4430.696118
4422.406283
4418.753203
4440.839044
4431.743804
4413.023591
4404.757857
4448.308904
4442.413273
4394.379643
4430.495459
4433.487110
4392.477258
4402.119682
4451.262299
4404.592704
4419.972679
4430.691187
4410.313628
4425.345218
4390.120782
4408.330881
4444.923747
4421.102385
4475.098002
4469.172514
4453.805966
4435.921054
4441.677016
4458.561035
4440.203585
4427.196054
4417.935426
4435.691890
4430.744424
4408.799835
4431.953132
4437.560360
4417.639002
4397.114641
4432.218105
4453.064722
4384.443909
4433.334528
4449.029837
4402.925517
4414.702530
4446.849957
4401.858059
4418.285673
4448.312461
4512.111090
4414.831497
4479.895325
4466.241230
4434.085063
4441.762509
4420.964954
4451.668487
4438.820609
4392.761388
4427.302455
4460.409963
4427.400637
4429.834708
4406.798310
4441.964963
4443.741447
4406.165914
4410.157431
4449.637584
4429.562885
4394.295206
4419.831947
4424.032230
4385.231618
4432.908566
4422.450620
4405.965832
4402.807756
4464.124507
4366.560241
4403.198273
4513.451129
4389.501999
4463.255837
4470.383940
4451.427586
4441.068523
4473.502348
4439.589886
4456.332865
4416.048205
4412.211950
4425.653857
4433.204254
4435.585993
4438.949112
4392.425558
4448.953400
4446.309745
4398.640990
4405.569352
4439.558515
4440.346811
4405.241655
4415.639933
4427.335006
4406.398832
4410.722568
4446.752590
4424.361158
4433.610421
4441.744470
4481.633926
4442.701872
4471.355776
4481.142988
4432.359296
4462.274994
4431.390127
4426.447512
4445.202096
4403.025454
4431.625202
4430.039903
4423.170670
4419.290891
4417.697587
4442.638041
4440.405471
4394.425775
4440.863057
4440.387851
4417.224579
4392.249814
4427.682630
4443.663154
4407.518962
4414.048342
4445.734309
4419.416075
4423.643364
4451.187810
4391.103466
4441.731139
4467.820077
4443.237589
4460.746788
4449.150488
4431.334890
4456.842331
4414.137465
4471.053825
4419.721121
4442.975063
4426.263503
4424.160403
4438.833191
4433.606080
4424.724106
4401.769379
4438.121289
4449.574143
4390.487722
4428.073335
4442.916971
4423.681419
4389.512015
4421.934277
4432.446511
4429.445045
4404.410789
4421.564746
4424.492864
4444.602800
4453.382002
4391.232652
4467.407527
4437.195852
4455.175338
4457.335996
4460.201345
4408.056951
4428.138132
4466.007122
4414.039429
4421.096199
4431.988081
4431.357970
4415.575678
4426.681505
4440.966539
4430.144480
4394.631695
4443.904184
4446.990022
4395.117791
4418.842980
4438.316087
4439.624525
4411.507369
4402.722048
4448.415010
4422.357574
4407.183740
4435.701810
4467.162485
4422.886917
4430.307605
4431.659897
4452.600388
4418.037923
4445.741839
4427.047229
4423.898587
4410.818777
4410.887962
4428.702339
4432.606678
4417.763143
4443.467800
4445.107683
4406.742114
4418.339563
4434.894143
4425.705662
4402.415519
4447.406342
4436.089403
4407.260201
4388.396851
4431.489007
4441.942744
4411.331174
4431.607994
4438.227262
4406.460063
4434.977083
4425.892379
4464.713026
4439.090099
4420.512233
4462.512163
4473.826816
4475.745445
4494.278152
4410.093959
4414.331297
4429.333797
4432.498281
4435.342527
4430.810356
4406.641213
4447.349127
4437.908046
4417.854057
4421.758417
4421.395685
4443.206657
4396.492074
4434.812253
4449.659045
4423.806241
4400.764208
4425.381690
4421.762216
4449.153545
4435.573925
4469.991342
4437.025052
4431.575041
4429.054125
4410.004704
4461.528635
4439.659250
4449.131212
4488.704723
4416.093994
4444.014325
4436.253156
4428.535875
4426.128591
4430.642825
4441.364081
4439.630062
4402.701917
4424.786408
4429.448518
4430.699162
4412.303040
4433.583115
4441.670343
4394.185172
4398.153019
4437.207691
4443.314868
4410.753314
4435.443313
4427.451292
4437.345909
4423.643472
4445.712479
4466.413601
4446.608727
4423.048029
4446.496524
4406.441339
4486.841137
4421.856538
4414.810582
4438.862483
4420.178068
4446.216886
4425.860098
4425.657903
4404.493515
4442.771607
4455.693398
4410.401002
4419.420272
4429.073586
4431.929693
4408.846114
4444.518844
4442.279593
4416.771346
4396.916497
4421.998686
4413.434990
4426.636792
4410.076381
4445.112010
4459.728931
4386.663131
4429.654642
4444.529408
4419.294911
4458.377881
4381.149075
4467.686659
4379.615201
4431.074844
4430.862092
4445.090191
4407.843471
4439.648645
4449.253490
4411.522185
4392.242483
4438.235345
4441.827398
4413.397588
4428.420825
4413.331441
4436.152965
4395.527367
4402.948155
4446.462242
4436.767879
4400.316810
4454.601300
4432.169473
4456.095170
4409.038700
4458.761769
4424.918687
4434.077982
4467.847894
4459.866406
4425.826749
4481.193846
4523.849853
4442.334142
4435.901445
4417.138269
4448.461996
4427.572544
4409.938824
4450.695626
4445.894519
4421.293551
4429.896175
4422.001949
4441.355461
4433.498785
4418.671954
4444.726369
4439.598529
4409.122780
4411.828785
4446.831274
4387.824937
4428.358657
4441.306547
4452.916950
4441.016237
4410.973306
4445.035843
4437.554820
4437.564110
4464.190146
4467.310709
4450.340511
4424.692953
4425.831603
4440.922309
4439.568606
4409.733802
4467.847076
4423.977591
4406.563397
4432.436962
4402.941727
4446.237816
4425.049048
4423.473885
4434.045911
4413.032312
4402.516156
4431.931649
4439.589634
4429.126399
4421.082109
4442.272118
4429.359671
4402.017433
4414.933678
4453.524888
4459.531853
4403.351681
4416.932373
4482.427623
4418.020887
4463.269117
4421.937144
4428.022788
4440.453242
4416.446563
4425.728375
4422.778260
4400.524136
4446.097779
4443.351723
4429.412830
4433.814198
4422.878887
4437.423786
4415.102527
4447.261455
4425.060987
4437.148791
4401.896312
4448.431261
4433.888470
4428.964773
4421.361510
4451.787305
4437.474154
4440.959861
4445.640952
4452.351181
4425.495745
4478.152562
4441.148187
4463.288409
4434.219941
4430.905498
4404.118988
4438.200752
4446.071861
4421.972396
4438.465727
4438.620895
4390.865411
4441.353880
4405.486006
4417.430422
4436.483442
4416.056186
4423.339938
4428.720879
4422.844622
4427.390684
4449.620777
4411.416884
4445.890915
4437.276376
4436.930710
4432.602841
4428.461086
4443.491666
4447.003589
4468.690539
4481.776896
4472.804126
4466.169420
4427.425183
4420.897441
4439.781354
4440.736640
4404.745634
4439.653290
4423.839454
4405.903319
4456.007089
4436.050936
4428.298967
4456.828684
4418.821976
4445.927017
4399.214285
4429.060064
4428.211599
4416.937144
4439.471875
4413.783184
4429.436753
4409.679309
4446.383553
4436.551896
4449.666949
4462.300408
4451.622736
4455.411757
4440.365303
4416.200317
4466.564483
4424.914369
4429.451064
4419.027887
4410.740895
4453.528796
4431.788521
4412.945309
4439.503299
4419.481381
4416.839897
4410.627393
4410.702565
4411.617075
4429.424108
4445.094589
4433.521917
4436.577698
4404.336970
4438.377628
4431.904119
4415.692593
4446.309016
4437.279340
4440.252750
4440.264403
4437.781077
4468.005615
4443.570797
4468.355711
4467.546028
4461.119802
4424.218348
4440.833063
4430.505391
4435.228564
4448.561629
4418.546853
4449.733933
4425.338524
4417.069382
4449.374503
4450.007609
4430.801214
4453.199083
4449.390353
4401.542045
4436.981550
4408.717491
4447.716223
4421.095211
4442.191010
4445.783800
4434.569566
4423.522999
4459.849888
4428.200604
4468.650802
4456.286295
4452.807093
4460.236611
4451.875239
4458.148949
4433.634122
4433.684101
4410.682466
4428.901883
4383.628629
4451.537639
4434.097969
4413.948466
4453.621473
4413.996171
4400.828080
4405.239415
4433.052623
4405.232777
4430.168223
4408.172109
4436.889169
4446.301899
4425.850525
4431.271065
4412.133589
4427.712377
4447.983913
4444.812921
4442.476601
4437.641581
4438.091744
4466.395895
4455.122311
4457.658493
4457.644105
4431.549568
4427.784517
4429.714876
4453.970141
4419.983365
4445.604509
4410.849547
4461.915995
4404.440488
4453.217233
4443.479496
4442.470205
4425.005620
4428.871990
4434.940021
4428.732112
4431.107436
4410.157258
4449.122978
4427.411617
4437.762293
4458.170012
4419.307942
4455.844263
4445.517551
4453.857961
4466.451901
4446.631635
4462.822257
4453.663963
4454.814738
4424.691214
4424.954771
4430.735751
4404.242940
4432.284114
4416.790206
4417.092191
4438.113786
4443.411109
4417.405384
4420.339780
4400.451135
4418.073815
4434.611685
4427.184325
4459.688950
4430.533142
4442.187484
4445.853888
4408.884668
4440.437926
4399.065071
4433.607032
4454.341726
4433.623185
4447.513814
4454.491128
4454.591099
4451.062394
4453.474465
4452.887853
4428.249531
4436.893501
4430.459117
4432.221126
4450.522025
4444.957911
4447.686929
4418.197566
4426.046369
4437.353090
4457.151488
4456.495292
4427.474222
4446.529793
4403.931678
4465.795374
4414.619234
4449.177821
4419.269694
4445.954742
4464.581704
4417.147787
4459.436528
4403.103963
4466.945934
4452.278708
4444.723140
4465.393679
4450.861776
4454.984431
4451.609909
4435.685994
4429.284183
4414.847751
4428.079527
4395.827704
4448.879362
4438.966505
4406.235223
4427.851440
4416.537875
4418.273456
4410.423722
4455.099402
4415.154920
4416.023636
4403.291372
4462.980512
4426.474401
4441.509097
4426.166165
4408.944019
4439.584479
4467.418919
4400.019761
4465.138414
4415.264012
4465.737791
4448.319976
4444.576119
4454.612944
4449.922651
4433.267421
4427.537520
4445.278306
4443.351069
4434.053778
4431.873266
4429.551923
4438.686322
4443.849181
4419.777878
4451.517518
4425.058981
4445.080756
4410.111771
4443.351144
4432.613725
4439.964040
4416.692572
4440.956040
4460.214767
4438.924974
4423.550856
4427.269882
4465.145387
4422.473151
4430.092617
4434.162678
4445.314223
4469.469850
4454.941653
4452.615061
4426.660553
4428.433004
4433.620251
4402.751401
4441.711131
4428.228163
4433.851346
4446.025864
4409.841504
4441.641599
4415.262562
4420.547630
4428.071834
4453.910632
4415.570989
4418.677366
4451.865740
4439.151157
4427.324876
4422.255642
4420.088392
4439.632097
4434.384275
4453.215287
4415.878305
4472.081241
4419.848451
4443.772418
4436.709448
4438.364203
4452.192859
4435.582377
4436.190850
4428.779640
4447.319098
4458.514551
4417.783387
4423.338139
4408.630058
4443.080295
4454.570717
4422.292751
4443.131705
4441.754691
4420.288304
4441.951214
4442.698422
4433.977024
4426.737339
4422.526782
4447.282066
4444.080952
4450.780699
4439.610949
4440.659744
4456.763276
4443.377640
4443.000988
4450.925806
4444.042821
4463.749389
4451.035417
4431.609519
4435.939014
4419.253419
4435.640286
4393.608579
4458.561043
4437.568292
4436.891047
4445.765449
4418.181581
4421.395733
4457.852009
4401.416845
4437.819470
4438.328631
4419.048338
4428.738092
4443.309385
4442.614385
4416.914662
4446.516463
4412.057508
4431.282103
4458.469505
4429.908090
4434.228753
4455.617812
4426.149636
4444.358497
4431.660975
4450.584669
4431.136601
4435.680415
4430.017889
4436.733879
4451.592243
4419.945342
4406.225177
4436.288895
4426.515470
4454.922136
4451.358310
4444.650894
4446.253696
4406.968942
4415.389267
4437.419583
4447.902977
4425.417236
4427.616125
4417.180955
4456.429556
4459.352446
4444.183452
4440.859273
4451.376753
4451.020676
4444.789231
4450.125604
4460.875534
4446.908047
4452.355482
4443.545707
4427.985163
4439.726232
4421.378838
4418.403395
4440.544213
4429.211239
4446.020068
4419.789601
4429.732675
4411.939511
4440.506822
4459.739593
4443.156113
4447.284471
4424.121268
4431.821714
4435.810428
4449.473866
4431.215532
4440.892699
4429.593757
4421.280229
4435.884688
4422.674138
4445.139548
4433.409950
4437.578971
4438.220970
4449.116939
4446.561443
4436.766041
4423.407210
4440.402842
4433.328643
4446.204039
4431.969404
4426.635023
4432.789820
4423.500643
4453.582800
4432.906204
4440.128430
4403.692759
4454.768953
4408.863450
4453.752864
4440.770240
4440.645841