# vtk DataFile Version 2.0
mfree iwf
ASCII

DATASET UNSTRUCTURED_GRID
POINTS 6231 float
0.000000 0.000300 0.000000
0.000000 0.000310 0.000000
0.000000 0.000320 0.000000
0.000000 0.000330 0.000000
0.000000 0.000340 0.000000
0.000000 0.000350 0.000000
0.000001 0.000360 0.000000
0.000001 0.000370 0.000000
0.000001 0.000380 0.000000
0.000001 0.000390 0.000000
0.000001 0.000400 0.000000
0.000001 0.000410 0.000000
0.000001 0.000420 0.000000
0.000001 0.000430 0.000000
0.000002 0.000440 0.000000
0.000002 0.000450 0.000000
0.000002 0.000460 0.000000
0.000002 0.000471 0.000000
0.000002 0.000480 0.000000
0.000002 0.000492 0.000000
0.000006 0.000501 0.000000
0.000355 0.000694 0.000000
0.000384 0.000769 0.000000
0.000361 0.000711 0.000000
0.000391 0.000782 0.000000
0.000404 0.000801 0.000000
0.000440 0.000834 0.000000
0.000446 0.000838 0.000000
0.000458 0.000842 0.000000
0.000471 0.000848 0.000000
0.000502 0.000867 0.000000
0.000010 0.000300 0.000000
0.000010 0.000310 0.000000
0.000010 0.000320 0.000000
0.000010 0.000330 0.000000
0.000010 0.000340 0.000000
0.000010 0.000350 0.000000
0.000011 0.000360 0.000000
0.000011 0.000370 0.000000
0.000011 0.000380 0.000000
0.000011 0.000390 0.000000
0.000011 0.000400 0.000000
0.000011 0.000410 0.000000
0.000011 0.000420 0.000000
0.000011 0.000430 0.000000
0.000012 0.000440 0.000000
0.000012 0.000451 0.000000
0.000012 0.000460 0.000000
0.000012 0.000472 0.000000
0.000013 0.000478 0.000000
0.000010 0.000492 0.000000
0.000013 0.000498 0.000000
0.000421 0.000811 0.000000
0.000430 0.000819 0.000000
0.000437 0.000825 0.000000
0.000444 0.000828 0.000000
0.000461 0.000834 0.000000
0.000470 0.000839 0.000000
0.000483 0.000845 0.000000
0.000492 0.000853 0.000000
0.000497 0.000856 0.000000
0.000499 0.000863 0.000000
0.000020 0.000300 0.000000
0.000020 0.000310 0.000000
0.000020 0.000320 0.000000
0.000020 0.000330 0.000000
0.000020 0.000340 0.000000
0.000020 0.000350 0.000000
0.000021 0.000360 0.000000
0.000021 0.000370 0.000000
0.000020 0.000380 0.000000
0.000022 0.000390 0.000000
0.000020 0.000400 0.000000
0.000022 0.000410 0.000000
0.000020 0.000420 0.000000
0.000023 0.000431 0.000000
0.000020 0.000440 0.000000
0.000024 0.000451 0.000000
0.000021 0.000460 0.000000
0.000022 0.000470 0.000000
0.000021 0.000481 0.000000
0.000024 0.000494 0.000000
0.000020 0.000497 0.000000
0.000403 0.000781 0.000000
0.000419 0.000803 0.000000
0.000427 0.000812 0.000000
0.000435 0.000813 0.000000
0.000446 0.000815 0.000000
0.000455 0.000826 0.000000
0.000479 0.000838 0.000000
0.000490 0.000846 0.000000
0.000503 0.000846 0.000000
0.000510 0.000849 0.000000
0.000030 0.000300 0.000000
0.000030 0.000310 0.000000
0.000030 0.000320 0.000000
0.000031 0.000330 0.000000
0.000030 0.000340 0.000000
0.000032 0.000350 0.000000
0.000030 0.000360 0.000000
0.000031 0.000370 0.000000
0.000030 0.000380 0.000000
0.000031 0.000390 0.000000
0.000031 0.000400 0.000000
0.000031 0.000411 0.000000
0.000031 0.000420 0.000000
0.000032 0.000430 0.000000
0.000031 0.000440 0.000000
0.000031 0.000450 0.000000
0.000031 0.000459 0.000000
0.000036 0.000473 0.000000
0.000029 0.000478 0.000000
0.000033 0.000488 0.000000
0.000032 0.000497 0.000000
0.000063 0.000500 0.000000
0.000419 0.000796 0.000000
0.000434 0.000800 0.000000
0.000458 0.000818 0.000000
0.000468 0.000818 0.000000
0.000467 0.000829 0.000000
0.000477 0.000826 0.000000
0.000485 0.000831 0.000000
0.000495 0.000836 0.000000
0.000514 0.000841 0.000000
0.000040 0.000300 0.000000
0.000040 0.000310 0.000000
0.000040 0.000320 0.000000
0.000040 0.000329 0.000000
0.000040 0.000340 0.000000
0.000040 0.000351 0.000000
0.000040 0.000360 0.000000
0.000041 0.000370 0.000000
0.000041 0.000380 0.000000
0.000040 0.000390 0.000000
0.000042 0.000399 0.000000
0.000041 0.000410 0.000000
0.000042 0.000420 0.000000
0.000040 0.000431 0.000000
0.000042 0.000439 0.000000
0.000043 0.000450 0.000000
0.000043 0.000460 0.000000
0.000037 0.000469 0.000000
0.000045 0.000478 0.000000
0.000043 0.000496 0.000000
0.000040 0.000498 0.000000
0.000353 0.000560 0.000000
0.000433 0.000794 0.000000
0.000446 0.000805 0.000000
0.000454 0.000801 0.000000
0.000455 0.000813 0.000000
0.000477 0.000814 0.000000
0.000497 0.000827 0.000000
0.000505 0.000824 0.000000
0.000506 0.000836 0.000000
0.000517 0.000833 0.000000
0.000050 0.000300 0.000000
0.000050 0.000310 0.000000
0.000050 0.000319 0.000000
0.000049 0.000332 0.000000
0.000051 0.000340 0.000000
0.000050 0.000349 0.000000
0.000052 0.000360 0.000000
0.000049 0.000370 0.000000
0.000052 0.000379 0.000000
0.000050 0.000390 0.000000
0.000053 0.000400 0.000000
0.000049 0.000410 0.000000
0.000053 0.000420 0.000000
0.000051 0.000430 0.000000
0.000054 0.000440 0.000000
0.000047 0.000451 0.000000
0.000055 0.000458 0.000000
0.000053 0.000470 0.000000
0.000056 0.000483 0.000000
0.000049 0.000488 0.000000
0.000050 0.000498 0.000000
0.000410 0.000797 0.000000
0.000385 0.000760 0.000000
0.000444 0.000794 0.000000
0.000464 0.000802 0.000000
0.000473 0.000808 0.000000
0.000486 0.000821 0.000000
0.000486 0.000809 0.000000
0.000493 0.000816 0.000000
0.000511 0.000823 0.000000
0.000521 0.000823 0.000000
0.000060 0.000300 0.000000
0.000060 0.000310 0.000000
0.000060 0.000321 0.000000
0.000060 0.000329 0.000000
0.000062 0.000339 0.000000
0.000059 0.000351 0.000000
0.000062 0.000359 0.000000
0.000060 0.000370 0.000000
0.000063 0.000381 0.000000
0.000059 0.000390 0.000000
0.000064 0.000400 0.000000
0.000059 0.000409 0.000000
0.000065 0.000419 0.000000
0.000058 0.000430 0.000000
0.000066 0.000440 0.000000
0.000060 0.000449 0.000000
0.000066 0.000460 0.000000
0.000055 0.000471 0.000000
0.000064 0.000475 0.000000
0.000068 0.000486 0.000000
0.000058 0.000496 0.000000
0.000405 0.000791 0.000000
0.000424 0.000789 0.000000
0.000447 0.000785 0.000000
0.000456 0.000794 0.000000
0.000469 0.000792 0.000000
0.000482 0.000797 0.000000
0.000507 0.000807 0.000000
0.000499 0.000811 0.000000
0.000514 0.000814 0.000000
0.000525 0.000814 0.000000
0.000070 0.000300 0.000000
0.000070 0.000310 0.000000
0.000070 0.000319 0.000000
0.000070 0.000330 0.000000
0.000071 0.000341 0.000000
0.000068 0.000351 0.000000
0.000076 0.000357 0.000000
0.000067 0.000371 0.000000
0.000074 0.000377 0.000000
0.000069 0.000390 0.000000
0.000074 0.000400 0.000000
0.000068 0.000410 0.000000
0.000075 0.000421 0.000000
0.000067 0.000429 0.000000
0.000075 0.000438 0.000000
0.000066 0.000452 0.000000
0.000077 0.000459 0.000000
0.000073 0.000470 0.000000
0.000076 0.000486 0.000000
0.000068 0.000496 0.000000
0.000076 0.000496 0.000000
0.000353 0.000546 0.000000
0.000414 0.000781 0.000000
0.000435 0.000784 0.000000
0.000466 0.000782 0.000000
0.000473 0.000799 0.000000
0.000490 0.000794 0.000000
0.000495 0.000802 0.000000
0.000502 0.000796 0.000000
0.000517 0.000804 0.000000
0.000528 0.000805 0.000000
0.000080 0.000300 0.000000
0.000080 0.000310 0.000000
0.000080 0.000321 0.000000
0.000081 0.000330 0.000000
0.000080 0.000339 0.000000
0.000080 0.000349 0.000000
0.000075 0.000365 0.000000
0.000083 0.000367 0.000000
0.000081 0.000384 0.000000
0.000078 0.000391 0.000000
0.000087 0.000396 0.000000
0.000078 0.000410 0.000000
0.000085 0.000417 0.000000
0.000079 0.000431 0.000000
0.000087 0.000446 0.000000
0.000077 0.000447 0.000000
0.000085 0.000463 0.000000
0.000074 0.000470 0.000000
0.000087 0.000473 0.000000
0.000085 0.000482 0.000000
0.000084 0.000495 0.000000
0.000398 0.000783 0.000000
0.000379 0.000760 0.000000
0.000450 0.000777 0.000000
0.000458 0.000784 0.000000
0.000476 0.000784 0.000000
0.000485 0.000785 0.000000
0.000495 0.000785 0.000000
0.000511 0.000795 0.000000
0.000520 0.000795 0.000000
0.000531 0.000795 0.000000
0.000090 0.000300 0.000000
0.000090 0.000310 0.000000
0.000090 0.000320 0.000000
0.000090 0.000330 0.000000
0.000090 0.000341 0.000000
0.000092 0.000352 0.000000
0.000089 0.000359 0.000000
0.000092 0.000370 0.000000
0.000088 0.000379 0.000000
0.000092 0.000388 0.000000
0.000086 0.000405 0.000000
0.000094 0.000408 0.000000
0.000088 0.000425 0.000000
0.000096 0.000426 0.000000
0.000089 0.000435 0.000000
0.000097 0.000455 0.000000
0.000087 0.000453 0.000000
0.000097 0.000471 0.000000
0.000106 0.000480 0.000000
0.000089 0.000495 0.000000
0.000095 0.000495 0.000000
0.000353 0.000578 0.000000
0.000412 0.000775 0.000000
0.000400 0.000771 0.000000
0.000428 0.000780 0.000000
0.000470 0.000775 0.000000
0.000486 0.000776 0.000000
0.000505 0.000785 0.000000
0.000512 0.000782 0.000000
0.000523 0.000786 0.000000
0.000533 0.000786 0.000000
0.000100 0.000300 0.000000
0.000100 0.000310 0.000000
0.000100 0.000320 0.000000
0.000100 0.000331 0.000000
0.000100 0.000339 0.000000
0.000099 0.000349 0.000000
0.000101 0.000360 0.000000
0.000100 0.000372 0.000000
0.000101 0.000380 0.000000
0.000101 0.000392 0.000000
0.000099 0.000399 0.000000
0.000103 0.000409 0.000000
0.000100 0.000418 0.000000
0.000100 0.000435 0.000000
0.000109 0.000443 0.000000
0.000096 0.000445 0.000000
0.000107 0.000460 0.000000
0.000098 0.000466 0.000000
0.000094 0.000481 0.000000
0.000106 0.000491 0.000000
0.000101 0.000494 0.000000
0.000362 0.000717 0.000000
0.000365 0.000724 0.000000
0.000376 0.000754 0.000000
0.000462 0.000770 0.000000
0.000478 0.000770 0.000000
0.000491 0.000771 0.000000
0.000504 0.000776 0.000000
0.000506 0.000768 0.000000
0.000523 0.000778 0.000000
0.000535 0.000776 0.000000
0.000110 0.000300 0.000000
0.000110 0.000310 0.000000
0.000110 0.000321 0.000000
0.000110 0.000330 0.000000
0.000110 0.000340 0.000000
0.000110 0.000351 0.000000
0.000111 0.000361 0.000000
0.000110 0.000368 0.000000
0.000112 0.000379 0.000000
0.000109 0.000389 0.000000
0.000112 0.000400 0.000000
0.000110 0.000412 0.000000
0.000115 0.000422 0.000000
0.000107 0.000427 0.000000
0.000112 0.000434 0.000000
0.000107 0.000449 0.000000
0.000115 0.000461 0.000000
0.000111 0.000471 0.000000
0.000116 0.000480 0.000000
0.000111 0.000493 0.000000
0.000119 0.000492 0.000000
0.000353 0.000645 0.000000
0.000353 0.000601 0.000000
0.000409 0.000766 0.000000
0.000436 0.000772 0.000000
0.000431 0.000764 0.000000
[...]
POINT_DATA 6231
SCALARS density float 1
LOOKUP_TABLE default
4405.456431
4424.061213
4422.007193
4423.373373
4425.459351
4426.480538
4425.859731
4426.990134
4429.965393
4428.800911
4426.298526
4430.888918
4429.167542
4430.080121
4430.707049
4440.331648
4422.961220
4432.398421
4412.693923
4423.592294
4411.236504
4431.720446
4423.627879
4428.490738
4437.789140
4423.519632
4409.345648
4442.117891
4439.827119
4445.837058
4418.071561
4409.205332
4424.021254
4423.321158
4420.486901
4422.647319
4428.226476
4425.497163
4419.253815
4427.084674
4429.577053
4424.312312
4432.264664
4425.236787
4436.366379
4415.659684
4428.335084
4409.770635
4443.060349
4460.900614
4460.302421
4415.852384
4396.309691
4378.523731
4412.207187
4477.927476
4396.794070
4412.350040
4419.228859
4420.069681
4440.499242
4462.708432
4416.054251
4431.598206
4419.896831
4432.240499
4429.619152
4415.889346
4430.696720
4440.524765
4421.325469
4429.867235
4429.083591
4433.417022
4416.144972
4441.681458
4416.252363
4475.166401
4399.812698
4454.319684
4352.240533
4450.049942
4420.541230
4419.811684
4418.023102
4405.241247
4553.200932
4369.906864
4379.825410
4454.647753
4402.190322
4420.179992
4403.034553
4422.798262
4424.292538
4422.699730
4423.884313
4427.538736
4439.768623
4423.811113
4422.481588
4418.713792
4439.585017
4410.091924
4437.754574
4420.610346
4443.685151
4402.356058
4431.065031
4391.270252
4457.287138
4370.444840
4555.465950
4370.654939
4431.446249
4452.021470
4463.634456
4470.987360
4382.939200
4482.911752
4418.425376
4403.847097
4515.224299
4450.866754
4428.519857
4429.440279
4438.415949
4440.582092
4420.272584
4433.769947
4419.176906
4439.851763
4424.424105
4436.159281
4410.779929
4449.113350
4401.135011
4443.455978
4415.948453
4448.998514
4386.809583
4507.599928
4310.023283
4420.000194
4383.941151
4495.892565
4414.176954
4356.645002
4488.351847
4473.080442
4432.729346
4377.149246
4425.445779
4393.994466
4426.212957
4436.931665
4427.901274
4412.196717
4430.186420
4429.094965
4435.100350
4407.099535
4445.276137
4405.427968
4438.331290
4417.955491
4440.380138
4400.446361
4462.232443
4358.646040
4481.491151
4355.100724
4479.006396
4362.344403
4536.597088
4383.203557
4444.615386
4421.324272
4448.585248
4370.417705
4452.087548
4445.978405
4394.431809
4448.514265
4437.849677
4414.971150
4423.840456
4433.930354
4437.570591
4447.615596
4414.574728
4453.487116
4407.130307
4440.997104
4418.668531
4451.574370
4407.833064
4442.150099
4424.320352
4438.422253
4421.148306
4473.151194
4402.817565
4517.692353
4371.328657
4482.145393
4431.573522
4421.413680
4399.296390
4430.031935
4448.535058
4418.000673
4410.087144
4411.688227
4419.352849
4446.717673
4427.042163
4423.041076
4431.376106
4421.527630
4415.404478
4442.554582
4425.430294
4424.950449
4449.976960
4404.886284
4438.500108
4400.818789
4431.197202
4411.122743
4437.437372
4442.738038
4461.426318
4436.822309
4462.020558
4447.453741
4412.493703
4387.892661
4634.389829
4439.160086
4425.918113
4478.453736
4458.709093
4433.011770
4442.948822
4445.428877
4435.346260
4412.966753
4427.195097
4428.835494
4418.032432
4436.517718
4431.812888
4422.953456
4436.269560
4421.288095
4450.395386
4434.966814
4406.532541
4433.106346
4413.801839
4438.930168
4465.177251
4391.630502
4453.166235
4451.556610
4359.791074
4466.019389
4412.232891
4431.676717
4411.068482
4430.476852
4407.964104
4415.863182
4433.802357
4390.992713
4433.953385
4430.839597
4440.786150
4425.638074
4433.393544
4433.493790
4428.536728
4401.976146
4442.508964
4422.867709
4433.613194
4420.482275
4419.586219
4452.646397
4401.221592
4427.274680
4460.977646
4414.943664
4376.230274
4442.466976
4435.058557
4425.537876
4426.375411
4415.654690
4612.274807
4445.700228
4426.957276
4472.750504
4433.691058
4445.656303
4467.153258
4407.010886
4415.321222
4417.922433
4431.383215
4430.196856
4415.728696
4430.857524
4438.833086
4443.711871
4405.142600
4438.058546
4420.088158
4436.804005
4442.929525
4439.845681
4429.346505
4393.342607
4445.791907
4448.911663
4417.952044
4471.624373
4415.517575
4438.066165
4419.920193
4429.281100
4432.030415
4418.506368
4404.842345
4395.854679
4460.655359
4410.439377
4493.264589
4463.752297
4409.012157
4429.377102
4428.849201
4438.471675
4434.510220
4407.711730
4417.485782
4445.172952
4438.320817
4418.285144
4442.323126
4398.410699
4443.506959
4397.961858
4436.867929
4428.758847
4446.130470
4460.813017
4390.567138
4465.961067
4400.203407
4412.887631
4469.040769
4537.062254
4429.129983
4395.310834
4439.118063
4472.515983
4403.941207
4409.443329
4425.401658
4446.365126
4436.870024
4424.031130
4426.638487
4419.359215
4439.622205
4443.425559
4411.066626
4417.629460
4438.589071
4436.917155
4429.588783
4433.840038
4432.693974
4433.256938
4421.105010
4372.098654
4438.775442
4394.017326
4421.441952
4438.807161
4395.063700
4435.722423
4409.579129
4427.103918
4461.391686
4433.041844
4387.868432
4390.335079
4431.477979
4403.870492
4417.708550
4430.489000
4429.743210
4431.861467
4430.512519
4425.738382
4412.058082
4429.373520
4441.491799
4425.336752
4403.333232
4434.405735
4429.544057
4432.257386
4427.997231
4411.549235
4445.962399
4421.748936
4443.261970
4495.564250
4421.184332
4422.826894
4436.149182
4414.204189
4422.494536
4422.136532
4426.519009
4445.181770
4453.155663
4464.276724
4468.396755
4433.400484
4428.137900
4436.821961
4437.172383
4414.215521
4416.590772
4442.474245
4434.717571
4406.634857
4440.867478
4424.646257
4442.819986
4399.974514
4441.203383
4409.072336
4439.388796
4383.246044
4408.906764
4503.657824
4570.880778
4389.005862
4373.850031
4410.278605
4412.409469
4450.584066
4449.918738
4394.787709
4462.172484
4441.891089
4395.192095
4410.764854
4436.524385
4429.251457
4436.166941
4413.350575
4445.571692
4442.950324
4398.297237
4421.666939
4435.974686
4429.415907
4400.532891
4444.314868
4413.601227
4446.314266
4389.817421
4462.135267
4416.358837
4484.240884
4354.049427
4328.199196
4507.674833
4394.592231
4419.993375
4426.541522
4433.654771
4474.726417
4469.541747
4421.956049
4407.929634
4432.928371
4421.743805
4411.753170
4427.101539
4440.436008
4431.560656
4415.323262
4426.197926
4437.987486
4443.398901
4407.126147
4426.169044
4441.833462
4422.587070
4396.467042
4443.468529
4419.894296
4432.722865
4412.163181
4416.736097
4499.172607
4490.435386
4423.327706
4404.283335
4428.378701
4446.451711
4431.804742
4388.724728
4430.512638
4438.307058
4410.716548
4417.851783
4446.519022
4421.489499
4434.392910
4424.376888
4428.026349
4443.553445
4424.237694
4429.255480
4415.627823
4436.408432
4434.542998
4405.958893
4431.951458
4452.569885
4425.358319
4439.325372
4394.707918
4452.494271
4406.057627
4469.458693
4330.203901
4359.167802
4432.177922
4422.635661
4424.910902
4388.770433
4392.844615
4457.078554
4423.817883
4444.881873
4452.540030
4416.485562
4422.999978
4434.278905
4429.748664
4427.500171
4439.253175
4419.027865
4438.226231
4420.480703
4435.082116
4416.622817
4455.046351
4409.162399
4411.519497
4409.144443
4445.693385
4407.029815
4449.825590
4325.599484
4478.068442
4390.509149
4450.987433
4399.878544
4422.050237
4401.865322
4431.299939
4464.750002
4380.440685
4466.199180
4449.380683
4432.681932
4388.928413
4423.830991
4429.167648
4431.021995
4428.212770
4421.798293
4429.258337
4436.507869
4417.819220
4436.287768
4405.379190
4437.723487
4407.670422
4462.344561
4406.410001
4443.575123
4389.394863
4450.237122
4462.252854
4491.336049
4428.707861
4559.951211
4389.743807
4479.019585
4454.064273
4424.010560
4456.480569
4431.091951
4395.163475
4404.545808
4410.949349
4486.348856
4391.763709
4426.956260
4424.494603
4426.807399
4435.360555
4428.204068
4425.676945
4427.403737
4430.986242
4425.852356
4437.645930
4394.900838
4446.253724
4377.224371
4450.175521
4430.069718
4408.918546
4403.049746
4472.318531
4361.077256
4392.898880
4504.113191
4465.645174
4404.200016
4439.418294
4419.497585
4391.694271
4421.131096
4426.494165
4457.051865
4393.352232
4381.003871
4422.117546
4440.054105
4433.057871
4419.118890
4416.672667
4431.215419
4428.501245
4422.405632
4415.476646
4429.787011
4448.022450
4408.326520
4459.529079
4410.337769
4421.716537
4474.702638
4391.571062
4478.068168
4404.453420
4476.702455
4413.439398
4443.912285
4397.679580
4410.668724
4407.865542
4432.873985
4447.275508
4435.820904
4361.321016
4396.098974
4455.655364
4430.235208
4427.721563
4411.924821
4439.443301
4438.653795
4409.741836
4411.665551
4444.684785
4434.196179
4401.905905
4445.062157
4397.736855
4449.678242
4444.960344
4408.818138
4418.287915
4399.954870
4453.665621
4388.719513
4451.139087
4469.083996
4432.375043
4462.066240
4468.530134
4463.881190
4435.310595
4488.459934
4380.276790
4501.537423
4397.785124
4432.086534
4426.160452
4428.176544
4436.273187
4434.183468
4408.974173
4433.984533
4440.139952
4390.581165
4438.637172
4443.504213
4395.439564
4479.108340
4381.169115
4442.414211
4416.233950
4422.120212
4443.986177
4425.913770
4425.790030
4410.969109
4418.336170
4399.918826
4454.285333
4393.698027
4441.716846
4417.143015
4381.318791
4372.651861
4495.837581
4424.062613
4437.287489
4425.399118
4426.195950
4425.928726
4412.699068
4440.977387
4425.652624
4417.354006
4445.935321
4410.033486
4425.129028
4400.377733
4456.242188
4365.130247
4431.779287
4382.643543
4459.157359
4384.614070
4411.396281
4449.581952
4511.590021
4422.722207
4417.438784
4463.450389
4402.764943
4470.291151
4452.219447
4464.714910
4408.447237
4448.855976
4436.988425
4457.824733
4428.925429
4425.122872
4425.431921
4438.122264
4431.465974
4419.376242
4407.857098
4440.278700
4405.056720
4428.540246
4436.055073
4416.970973
4451.559084
4422.179747
4434.942868
4469.953510
4386.140110
4496.048326
4380.990266
4418.303984
4430.324920
4407.588777
4531.311535
4428.379413
4427.859185
4441.529726
4436.236837
4439.683184
4432.693365
4416.934328
4415.758718
4421.697799
4441.100046
4427.639512
4425.125589
4402.534318
4447.764154
4439.762886
4409.570032
4427.757001
4410.712867
4404.201636
4434.216167
4434.584692
4393.594881
4391.333461
4420.136069
4409.031883
4408.545804
4375.721081
4491.213097
4455.168782
4690.814521
4394.414851
4425.932938
4448.810571
4417.288390
4458.177345
4422.546633
4459.007842
4395.728111
4429.208692
4433.174952
4434.835522
4408.592056
4437.635191
4448.364006
4411.273376
4410.202406
4427.515960
4423.713123
4424.199765
4433.757392
4414.608535
4411.398509
4436.766758
4447.608702
4427.611409
4438.866606
4435.935982
4435.157184
4425.091462
4419.109028
4414.164737
4396.832872
4384.161671
4453.829028
4444.733849
4440.394528
4428.375209
4449.525728
4376.839577
4424.817687
4428.886154
4420.794532
4443.403835
4435.451948
4409.282594
4434.539746
4436.929628
4427.127459
4414.853422
4411.631138
4428.208142
4410.962989
4447.695279
4415.349501
4397.661921
4392.112763
4450.191871
4400.882661
4420.539418
4429.232411
4407.934297
4428.636002
4408.694798
4404.381550
4458.413661
4458.342202
4406.883404
4456.303116
4419.535330
4445.306403
4409.519844
4422.877415
4422.140327
4432.003459
4410.318748
4437.688505
4444.838667
4406.278348
4409.367517
4435.524725
4417.806465
4430.891626
4414.358875
4420.328764
4387.775170
4488.378557
4444.720661
4474.879232
4391.313497
4375.517079
4488.456303
4456.333132
4409.315737
4457.037531
4479.368135
4481.496887
4454.359443
4440.898160
4447.644702
4417.137854
4437.632220
4452.722715
4427.356320
4435.085205
4421.633742
4435.311428
4445.120230
4389.850166
4444.226067
4442.066189
4412.557623
4403.681985
4431.059512
4396.679915
4456.044557
4435.876280
4399.429036
4389.402105
4412.251663
4456.347632
4448.146370
4439.526362
4449.499689
4412.429800
4465.447295
4468.248736
4443.924321
4450.622706
4422.717787
4420.605193
4402.804244
4435.336748
4397.212269
4427.131665
4426.302859
4433.387532
4427.075218
4412.766327
4438.026322
4446.021257
4379.827416
4448.473843
4429.435151
4417.223017
4448.384115
4388.782553
4414.841626
4409.824487
4452.653622
4433.272866
4448.416657
4373.294826
4406.121093
4425.349795
4458.397298
4490.963215
4467.578083
4432.531838
4425.760350
4447.180753
4423.596466
4476.964197
4347.156374
4436.859040
4433.291286
4427.627092
4426.928971
4424.330965
4435.434122
4434.235777
4398.132285
4445.180537
4427.123811
4410.917542
4420.458826
4411.176608
4417.569124
4444.540409
4398.462808
4444.190357
4396.710585
4398.953971
4444.434588
4468.692345
4440.332676
4417.022292
4438.186180
4440.371048
4421.715436
4478.127720
4432.435151
4424.442769
4444.537684
4442.402993
4405.137280
4437.804209
4426.141483
4438.182158
4428.192085
4423.320120
4412.415043
4414.327627
4461.580008
4380.820017
4441.947915
4438.372647
4420.586609
4441.670590
4400.700124
4427.229184
4425.790267
4412.375576
4469.425148
4390.154457
4463.993896
4489.430684
4451.163701
4467.541498
4451.030882
4449.386020
4434.190631
4416.022825
4394.270211
4368.325514
4368.758441
4425.538890
4429.383248
4425.997209
4429.191777
4425.549710
4426.686699
4445.913215
4418.422256
4391.990434
4445.853966
4442.690768
4379.015797
4434.740299
4399.180599
4428.476595
4434.925062
4412.300876
4424.729901
4426.300141
4403.850228
4405.554461
4440.309523
4398.395526
4510.140116
4470.744807
4454.630004
4432.686254
4441.681408
4459.740912
4403.298101
4502.303369
4449.940818
4425.821709
4437.628882
4432.299144
4434.700907
4433.184609
4403.612310
4438.637052
4424.115968
4429.913485
4397.527044
4432.896529
4448.285481
4399.466653
4442.514619
4385.948951
4460.599352
4406.576095
4440.713386
4419.771182
4506.061356
4474.710230
4446.316279
4439.047928
4421.041591
4468.030960
4476.999197
4470.530363
4438.777464
4402.758563
4450.376056
4434.673319
4425.548639
4430.551096
4419.999743
4431.721298
4422.358989
4436.818858
4421.294146
4396.493715
4400.189562
4446.754431
4425.392432
4390.598917
4439.776869
4425.522353
4428.189658
4426.219072
4428.487663
4398.298151
4486.694161
4408.206182
4504.281854
4451.250804
4421.217337
4469.682094
4456.184008
4426.967395
4459.635619
4421.605775
4411.156690
4406.279132
4416.608101
4428.080179
4423.699629
4438.772424
4428.956485
4422.884655
4408.382543
4437.376451
4438.914271
4453.643264
4405.531476
4404.189602
4439.297429
4443.633568
4414.216957
4427.742385
4410.642463
4433.942267
4440.360604
4442.020744
4431.435514
4420.666526
4419.868629
4476.027742
4415.671565
4446.609172
4440.120141
4482.342493
4390.418345
4459.499682
4445.388306
4418.187401
4428.517340
4424.536910
4415.173153
4411.892590
4461.288201
4413.187604
4409.572033
4442.953442
4393.570623
4444.389233
4426.337746
4405.198182
4386.212026
4438.230791
4450.715201
4415.929452
4416.660712
4411.212396
4411.862388
4442.871290
4438.678250
4414.978929
4443.946070
4445.659126
4431.757353
4457.681488
4451.242414
4455.962900
4436.583156
4424.244547
4429.252363
4420.591987
4422.279991
4442.894829
4435.548688
4423.894423
4407.437941
4438.939853
4434.148821
4424.908583
4448.169612
4401.084744
4416.906784
4434.256912
4418.769672
4417.775797
4436.973848
4406.959469
4438.703106
4434.720351
4414.506986
4428.130434
4458.512952
4453.820480
4427.042554
4474.001941
4437.180150
4427.579707
4437.336900
4459.721912
4471.593222
4414.867202
4419.227447
4434.898158
4405.294299
4415.361643
4425.625878
4418.905313
4404.770289
4412.704530
4443.685048
4393.394896
4440.581065
4419.090891
4407.519495
4420.012011
4422.694889
4416.402737
4440.405988
4398.709713
4443.386018
4432.174624
4438.996743
4435.380503
4464.336722
4429.757552
4457.564785
4445.306203
4401.761811
4436.736205
4484.732849
4424.039245
4430.874329
4421.698563
4438.050736
4420.785407
4441.683781
4444.207273
4455.991869
4417.883534
4442.263539
4414.496544
4425.845334
4442.367980
4399.608094
4413.045965
4418.861577
4408.723407
4447.863209
4446.040448
4444.213569
4410.234832
4434.847575
4431.986323
4429.136998
4443.229032
4428.870330
4435.793772
4417.467105
4439.648052
4444.219927
4473.391613
4376.182320
4445.724079
4426.366129
4427.260808
4411.148507
4423.965475
4387.575556
4451.952267
4412.987852
4437.050031
4395.666675
4436.130686
4383.071327
4425.087240
4443.348123
4437.639548
4412.394409
4431.619632
4410.853956
4427.690672
4434.836782
4421.106125
4428.407194
4431.114201
4428.820486
4442.342596
4441.226264
4434.757895
4439.275405
4464.300343
4429.012591
4392.560659
4419.592892
4422.204194
4420.333581
4433.267261
4442.359311
4415.908884
4445.318962
4409.752607
4468.093451
4389.619993
4459.100457
4388.525052
4456.085279
4378.184470
4440.300382
4422.756620
4425.720027
4419.195122
4423.985366
4440.040538
4431.745544
4420.765244
4446.922338
4426.630433
4439.240389
4428.598870
4445.107073
4431.349554
4408.889403
4480.352866
4429.598013
4395.911444
4419.522796
4422.818900
4428.944344
4388.210755
4427.163820
4412.217784
4425.540287
4433.493310
4441.685764
4432.669386
4444.405869
4400.449545
4429.856848
4466.010348
4421.232080
4421.943912
4438.978123
4443.334443
4420.388813
4421.004219
4434.571540
4449.743490
4381.127342
4438.456304
4424.501719
4457.825982
4424.129372
4377.919920
4461.422717
4519.921025
4392.651257
4425.426597
4429.676835
4426.979446
4424.730086
4449.156500
4425.741072
4444.189042
4411.798677
4406.579706
4433.503602
4456.511933
4444.405386
4408.950058
4375.990695
4405.540996
4471.014254
4416.065419
4442.085459
4414.907523
4405.083482
4433.110063
4453.088365
4453.512492
4468.841886
4403.817680
4460.897228
4439.202397
4456.562087
4414.537892
4428.022374
4550.990708
4424.036594
4426.014617
4420.070604
4417.282050
4400.433976
4441.245023
4427.148302
4417.333713
4419.322999
4450.715749
4385.068910
4389.979695
4457.686998
4461.174235
4410.662696
4438.030587
4430.038871
4396.992857
4438.130519
4445.391487
4401.861811
4441.720036
4417.224398
4437.623230
4477.998213
4432.258777
4428.188580
4379.068694
4541.368442
4428.557422
4455.391955
4429.470262
4431.751215
4439.698114
4436.993391
4429.916212
4424.324355
4421.224568
4417.407507
4448.199036
4431.979591
4457.656072
4451.087298
4372.715615
4417.493223
4431.495070
4406.919762
4438.412498
4447.313415
4422.570662
4449.337546
4442.777159
4442.648541
4449.350260
4431.650120
4423.976249
4463.293331
4493.090100
4484.530446
4390.126977
4421.185282
4468.625650
4439.083953
4427.991467
4427.411177
4415.535201
4428.941130
4420.402644
4420.621982
4447.413408
4410.901787
4402.645197
4421.146407
4413.106660
4449.644804
4454.548491
4367.731448
4453.184464
4432.093346
4426.445401
4446.002039
4419.986042
4404.603576
4421.311244
4441.075141
4449.222911
4423.837622
4398.397852
4447.230592
4448.902405
4487.193983
4437.850273
4473.626890
4436.875529
4421.138975
4444.789257
4444.759059
4426.316909
4444.855152
4436.066439
4413.920278
4446.213244
4424.907820
4439.572154
4429.596697
4398.427385
4430.271700
4459.683468
4436.953686
4409.370771
4445.211270
4417.072641
4420.559146
4456.591634
4418.832493
4426.117906
4443.683885
4462.067889
4449.608296
4443.656558
4438.417406
4450.678125
4447.239487
4472.566541
4427.458138
4435.468807
4429.326487
4408.143841
4437.247384
4393.165465
4399.386895
4433.790654
4430.206462
4444.927633
4417.254519
4451.909064
4432.802952
4432.047298
4450.504796
4386.149138
4437.857325
4426.678311
4436.153265
4407.579236
4433.648556
4432.726743
4446.087373
4417.127630
4445.316099
4455.322524
4443.741563
4468.359357
4477.814927
4414.673756
4469.906379
4431.374791
4428.535201
4430.697103
4419.479462
4445.828908
4420.130472
4454.591860
4406.236625
4380.952964
4477.423485
4391.929853
4449.704978
4433.605936
4401.035646
4386.962581
4453.065177
4447.994818
4412.623106
4446.841072
4434.481710
4429.850888
4463.680630
4437.904473
4421.885045
4455.373891
4423.402359
4453.378191
4447.741450
4453.331529
4468.546662
4460.013547
4439.047939
4426.416436
4432.751810
4451.007713
4400.585332
4455.888303
4445.042290
4439.157738
4440.203294
4397.616139
4408.604247
4396.462760
4452.092332
4456.976394
4447.590682
4422.852759
4404.009277
4436.880942
4425.531440
4420.081971
4438.302261
4433.795243
4433.235402
4443.692883
4441.241482
4433.873905
4447.074255
4440.078727
4464.299556
4455.834102
4454.493292
4437.290121
4426.248410
4414.733590
4423.823826
4436.630466
4444.464839
4402.352909
4436.655515
4423.988447
4441.252481
4455.540654
4453.186188
4441.928480
4453.662734
4385.513144
4456.288854
4444.467182
4452.063895