# vtk DataFile Version 2.0
mfree iwf
ASCII

DATASET UNSTRUCTURED_GRID
POINTS 6231 float
0.000000 0.000300 0.000000
0.000000 0.000310 0.000000
0.000000 0.000320 0.000000
0.000000 0.000330 0.000000
0.000000 0.000340 0.000000
0.000000 0.000350 0.000000
0.000000 0.000360 0.000000
0.000001 0.000370 0.000000
0.000001 0.000380 0.000000
0.000001 0.000390 0.000000
0.000001 0.000400 0.000000
0.000001 0.000410 0.000000
0.000001 0.000420 0.000000
0.000001 0.000430 0.000000
0.000001 0.000440 0.000000
0.000002 0.000450 0.000000
0.000002 0.000460 0.000000
0.000002 0.000470 0.000000
0.000002 0.000480 0.000000
0.000002 0.000492 0.000000
0.000006 0.000501 0.000000
0.000701 0.000901 0.000000
0.000768 0.000947 0.000000
0.000717 0.000911 0.000000
0.000780 0.000953 0.000000
0.000801 0.000961 0.000000
0.000849 0.000972 0.000000
0.000857 0.000971 0.000000
0.000870 0.000967 0.000000
0.000883 0.000967 0.000000
0.000914 0.000970 0.000000
0.000010 0.000300 0.000000
0.000010 0.000310 0.000000
0.000010 0.000320 0.000000
0.000010 0.000330 0.000000
0.000010 0.000340 0.000000
0.000010 0.000350 0.000000
0.000010 0.000360 0.000000
0.000011 0.000370 0.000000
0.000011 0.000380 0.000000
0.000011 0.000390 0.000000
0.000011 0.000400 0.000000
0.000011 0.000410 0.000000
0.000011 0.000420 0.000000
0.000011 0.000430 0.000000
0.000011 0.000440 0.000000
0.000011 0.000450 0.000000
0.000012 0.000460 0.000000
0.000011 0.000472 0.000000
0.000013 0.000478 0.000000
0.000009 0.000492 0.000000
0.000013 0.000498 0.000000
0.000820 0.000961 0.000000
0.000835 0.000963 0.000000
0.000843 0.000965 0.000000
0.000850 0.000963 0.000000
0.000866 0.000959 0.000000
0.000878 0.000959 0.000000
0.000892 0.000957 0.000000
0.000903 0.000960 0.000000
0.000909 0.000958 0.000000
0.000911 0.000966 0.000000
0.000020 0.000300 0.000000
0.000020 0.000310 0.000000
0.000020 0.000320 0.000000
0.000020 0.000330 0.000000
0.000020 0.000340 0.000000
0.000020 0.000350 0.000000
0.000020 0.000360 0.000000
0.000021 0.000370 0.000000
0.000020 0.000380 0.000000
0.000021 0.000390 0.000000
0.000021 0.000400 0.000000
0.000021 0.000410 0.000000
0.000021 0.000420 0.000000
0.000022 0.000430 0.000000
0.000020 0.000440 0.000000
0.000023 0.000451 0.000000
0.000021 0.000460 0.000000
0.000022 0.000470 0.000000
0.000021 0.000481 0.000000
0.000024 0.000494 0.000000
0.000020 0.000497 0.000000
0.000789 0.000945 0.000000
0.000817 0.000955 0.000000
0.000827 0.000958 0.000000
0.000832 0.000956 0.000000
0.000842 0.000951 0.000000
0.000857 0.000956 0.000000
0.000884 0.000953 0.000000
0.000899 0.000954 0.000000
0.000907 0.000947 0.000000
0.000915 0.000945 0.000000
0.000030 0.000300 0.000000
0.000030 0.000310 0.000000
0.000030 0.000320 0.000000
0.000031 0.000331 0.000000
0.000030 0.000340 0.000000
0.000030 0.000350 0.000000
0.000031 0.000360 0.000000
0.000030 0.000370 0.000000
0.000031 0.000380 0.000000
0.000031 0.000390 0.000000
0.000031 0.000400 0.000000
0.000031 0.000411 0.000000
0.000031 0.000420 0.000000
0.000032 0.000430 0.000000
0.000031 0.000440 0.000000
0.000030 0.000450 0.000000
0.000031 0.000459 0.000000
0.000036 0.000473 0.000000
0.000029 0.000478 0.000000
0.000033 0.000488 0.000000
0.000032 0.000497 0.000000
0.000063 0.000500 0.000000
0.000810 0.000950 0.000000
0.000826 0.000942 0.000000
0.000854 0.000947 0.000000
0.000863 0.000941 0.000000
0.000868 0.000952 0.000000
0.000874 0.000945 0.000000
0.000884 0.000944 0.000000
0.000892 0.000944 0.000000
0.000915 0.000937 0.000000
0.000040 0.000300 0.000000
0.000040 0.000310 0.000000
0.000041 0.000320 0.000000
0.000040 0.000329 0.000000
0.000040 0.000340 0.000000
0.000041 0.000351 0.000000
0.000041 0.000359 0.000000
0.000040 0.000370 0.000000
0.000041 0.000380 0.000000
0.000040 0.000390 0.000000
0.000042 0.000399 0.000000
0.000040 0.000410 0.000000
0.000042 0.000419 0.000000
0.000040 0.000431 0.000000
0.000042 0.000439 0.000000
0.000043 0.000450 0.000000
0.000043 0.000460 0.000000
0.000037 0.000469 0.000000
0.000045 0.000477 0.000000
0.000043 0.000496 0.000000
0.000040 0.000498 0.000000
0.000622 0.000745 0.000000
0.000819 0.000942 0.000000
0.000837 0.000942 0.000000
0.000844 0.000938 0.000000
0.000852 0.000945 0.000000
0.000874 0.000937 0.000000
0.000896 0.000934 0.000000
0.000895 0.000924 0.000000
0.000904 0.000938 0.000000
0.000914 0.000928 0.000000
0.000050 0.000300 0.000000
0.000050 0.000310 0.000000
0.000050 0.000319 0.000000
0.000049 0.000331 0.000000
0.000051 0.000340 0.000000
0.000050 0.000348 0.000000
0.000050 0.000360 0.000000
0.000051 0.000371 0.000000
0.000051 0.000379 0.000000
0.000050 0.000390 0.000000
0.000052 0.000399 0.000000
0.000049 0.000411 0.000000
0.000053 0.000420 0.000000
0.000051 0.000430 0.000000
0.000053 0.000440 0.000000
0.000047 0.000450 0.000000
0.000054 0.000458 0.000000
0.000053 0.000470 0.000000
0.000056 0.000482 0.000000
0.000048 0.000488 0.000000
0.000050 0.000498 0.000000
0.000806 0.000955 0.000000
0.000764 0.000937 0.000000
0.000832 0.000937 0.000000
0.000849 0.000927 0.000000
0.000862 0.000931 0.000000
0.000879 0.000930 0.000000
0.000870 0.000924 0.000000
0.000887 0.000932 0.000000
0.000903 0.000926 0.000000
0.000911 0.000917 0.000000
0.000060 0.000300 0.000000
0.000060 0.000310 0.000000
0.000060 0.000321 0.000000
0.000061 0.000329 0.000000
0.000060 0.000339 0.000000
0.000059 0.000352 0.000000
0.000062 0.000358 0.000000
0.000059 0.000368 0.000000
0.000061 0.000380 0.000000
0.000060 0.000391 0.000000
0.000063 0.000400 0.000000
0.000060 0.000409 0.000000
0.000063 0.000418 0.000000
0.000058 0.000430 0.000000
0.000065 0.000439 0.000000
0.000060 0.000450 0.000000
0.000065 0.000460 0.000000
0.000055 0.000472 0.000000
0.000064 0.000475 0.000000
0.000068 0.000486 0.000000
0.000058 0.000496 0.000000
0.000796 0.000953 0.000000
0.000810 0.000940 0.000000
0.000827 0.000925 0.000000
0.000840 0.000926 0.000000
0.000856 0.000919 0.000000
0.000863 0.000913 0.000000
0.000891 0.000914 0.000000
0.000882 0.000920 0.000000
0.000901 0.000914 0.000000
0.000909 0.000908 0.000000
0.000070 0.000300 0.000000
0.000070 0.000310 0.000000
0.000070 0.000320 0.000000
0.000070 0.000330 0.000000
0.000070 0.000341 0.000000
0.000070 0.000349 0.000000
0.000071 0.000359 0.000000
0.000068 0.000374 0.000000
0.000079 0.000376 0.000000
0.000069 0.000389 0.000000
0.000073 0.000400 0.000000
0.000069 0.000412 0.000000
0.000074 0.000421 0.000000
0.000069 0.000430 0.000000
0.000075 0.000439 0.000000
0.000066 0.000451 0.000000
0.000077 0.000459 0.000000
0.000073 0.000470 0.000000
0.000076 0.000485 0.000000
0.000068 0.000495 0.000000
0.000076 0.000496 0.000000
0.000617 0.000721 0.000000
0.000798 0.000940 0.000000
0.000820 0.000931 0.000000
0.000841 0.000910 0.000000
0.000857 0.000928 0.000000
0.000872 0.000913 0.000000
0.000882 0.000913 0.000000
0.000878 0.000902 0.000000
0.000898 0.000904 0.000000
0.000907 0.000898 0.000000
0.000080 0.000300 0.000000
0.000080 0.000310 0.000000
0.000080 0.000320 0.000000
0.000080 0.000330 0.000000
0.000081 0.000340 0.000000
0.000080 0.000351 0.000000
0.000082 0.000363 0.000000
0.000074 0.000368 0.000000
0.000078 0.000384 0.000000
0.000079 0.000392 0.000000
0.000088 0.000396 0.000000
0.000079 0.000409 0.000000
0.000084 0.000417 0.000000
0.000079 0.000429 0.000000
0.000087 0.000444 0.000000
0.000077 0.000447 0.000000
0.000086 0.000463 0.000000
0.000074 0.000470 0.000000
0.000087 0.000473 0.000000
0.000085 0.000482 0.000000
0.000084 0.000495 0.000000
0.000787 0.000950 0.000000
0.000759 0.000942 0.000000
0.000826 0.000913 0.000000
0.000837 0.000922 0.000000
0.000850 0.000912 0.000000
0.000857 0.000903 0.000000
0.000867 0.000903 0.000000
0.000888 0.000901 0.000000
0.000896 0.000895 0.000000
0.000904 0.000888 0.000000
0.000090 0.000300 0.000000
0.000090 0.000310 0.000000
0.000090 0.000320 0.000000
0.000090 0.000330 0.000000
0.000091 0.000340 0.000000
0.000090 0.000350 0.000000
0.000090 0.000358 0.000000
0.000091 0.000369 0.000000
0.000091 0.000379 0.000000
0.000091 0.000388 0.000000
0.000085 0.000405 0.000000
0.000093 0.000409 0.000000
0.000089 0.000426 0.000000
0.000096 0.000425 0.000000
0.000088 0.000436 0.000000
0.000097 0.000456 0.000000
0.000086 0.000453 0.000000
0.000097 0.000471 0.000000
0.000106 0.000480 0.000000
0.000089 0.000494 0.000000
0.000094 0.000495 0.000000
0.000627 0.000762 0.000000
0.000793 0.000935 0.000000
0.000781 0.000940 0.000000
0.000811 0.000931 0.000000
0.000837 0.000901 0.000000
0.000863 0.000894 0.000000
0.000876 0.000895 0.000000
0.000883 0.000890 0.000000
0.000893 0.000886 0.000000
0.000901 0.000879 0.000000
0.000100 0.000300 0.000000
0.000100 0.000310 0.000000
0.000101 0.000319 0.000000
0.000100 0.000331 0.000000
0.000100 0.000340 0.000000
0.000101 0.000350 0.000000
0.000100 0.000361 0.000000
0.000100 0.000372 0.000000
0.000101 0.000380 0.000000
0.000100 0.000391 0.000000
0.000100 0.000400 0.000000
0.000103 0.000407 0.000000
0.000100 0.000418 0.000000
0.000100 0.000436 0.000000
0.000110 0.000443 0.000000
0.000097 0.000445 0.000000
0.000108 0.000460 0.000000
0.000098 0.000467 0.000000
0.000095 0.000481 0.000000
0.000106 0.000491 0.000000
0.000101 0.000494 0.000000
0.000721 0.000915 0.000000
0.000729 0.000921 0.000000
0.000753 0.000938 0.000000
0.000837 0.000911 0.000000
0.000851 0.000900 0.000000
0.000853 0.000890 0.000000
0.000874 0.000886 0.000000
0.000865 0.000881 0.000000
0.000888 0.000879 0.000000
0.000897 0.000870 0.000000
0.000110 0.000300 0.000000
0.000110 0.000310 0.000000
0.000110 0.000321 0.000000
0.000110 0.000329 0.000000
0.000110 0.000339 0.000000
0.000110 0.000350 0.000000
0.000110 0.000359 0.000000
0.000113 0.000368 0.000000
0.000110 0.000379 0.000000
0.000111 0.000390 0.000000
0.000112 0.000399 0.000000
0.000110 0.000414 0.000000
0.000116 0.000422 0.000000
0.000107 0.000427 0.000000
0.000111 0.000433 0.000000
0.000106 0.000449 0.000000
0.000114 0.000461 0.000000
0.000111 0.000470 0.000000
0.000116 0.000480 0.000000
0.000111 0.000493 0.000000
0.000119 0.000491 0.000000
0.000674 0.000863 0.000000
0.000633 0.000783 0.000000
0.000787 0.000929 0.000000
0.000810 0.000919 0.000000
0.000800 0.000916 0.000000
[...]
POINT_DATA 6231
SCALARS density float 1
LOOKUP_TABLE default
4416.190577
4425.674831
4422.855759
4425.463036
4425.411683
4424.329841
4423.073777
4423.345439
4428.256484
4429.273282
4425.993364
4430.325897
4427.682853
4429.241991
4431.111800
4439.972787
4423.622338
4432.801244
4412.743916
4424.188368
4411.225677
4421.846060
4426.732441
4430.951685
4441.245786
4420.859957
4397.449491
4430.428825
4450.480947
4453.139870
4417.932197
4416.785391
4421.575529
4428.914935
4427.041796
4419.595666
4430.353934
4432.267310
4433.836399
4428.387921
4429.561771
4425.996634
4434.159587
4426.975284
4437.972375
4417.061133
4426.460505
4409.909975
4443.131509
4461.127926
4460.196181
4416.065530
4408.757625
4414.304675
4435.092543
4505.878521
4390.443775
4399.120453
4425.851961
4402.181763
4456.559166
4443.307737
4420.054172
4433.057251
4427.931732
4421.655233
4435.856758
4428.038378
4413.085041
4429.678635
4416.574102
4432.782624
4429.594914
4429.097421
4418.616622
4436.997991
4415.726027
4477.241993
4399.778030
4454.064510
4351.927864
4450.420790
4421.013298
4420.129801
4426.773559
4411.528390
4507.950215
4327.802429
4367.563626
4416.219406
4420.515669
4422.717565
4398.984468
4430.047122
4428.300898
4419.915008
4434.154680
4433.593075
4427.957373
4436.058796
4440.545616
4427.156829
4437.672173
4407.963188
4442.973374
4422.700095
4445.354102
4405.658042
4428.854831
4392.651224
4455.980515
4369.343069
4553.788284
4371.833183
4430.479553
4455.079921
4435.828181
4484.148268
4341.728486
4491.140390
4467.394898
4406.950926
4479.420447
4439.335956
4428.390075
4426.180582
4437.558239
4440.881671
4416.309389
4438.328770
4431.618429
4418.444079
4420.111936
4433.930468
4418.447392
4447.407759
4404.051377
4442.885667
4419.276753
4449.494903
4393.225938
4505.813447
4311.587989
4419.484033
4384.230670
4439.204866
4419.261897
4430.965315
4422.256224
4479.827179
4424.046675
4405.464429
4488.555581
4440.937088
4414.137659
4428.159078
4433.844990
4422.544336
4420.882286
4443.270948
4440.411279
4412.799038
4455.631608
4431.706557
4428.000590
4427.577576
4428.580325
4422.876311
4449.989382
4372.074367
4480.527860
4361.162045
4470.369511
4357.389967
4537.922929
4382.514467
4444.790381
4427.531050
4445.490998
4407.823974
4440.983070
4446.467431
4391.518624
4402.330909
4416.449297
4416.245392
4433.489729
4433.747300
4425.871581
4445.928050
4424.982866
4423.845554
4431.228174
4427.658079
4395.252036
4441.518429
4423.058205
4437.875485
4414.805952
4435.131816
4423.190979
4461.919337
4405.851078
4517.043273
4383.632187
4483.182428
4432.382159
4416.584403
4398.159697
4416.524330
4460.935939
4467.156408
4424.753257
4403.414967
4418.991818
4423.926167
4426.710404
4425.827351
4423.172158
4425.614110
4424.707099
4417.721775
4446.333267
4418.387533
4420.733686
4416.628767
4450.431378
4386.321120
4433.782857
4412.439078
4437.690870
4430.200388
4453.122585
4441.926129
4448.244442
4447.862987
4411.636722
4391.105113
4439.420664
4451.689746
4436.101250
4450.832993
4434.918729
4428.636103
4454.046313
4444.001883
4449.281033
4411.605889
4425.431606
4432.107580
4432.238503
4410.963131
4431.655323
4424.507740
4413.948987
4458.681276
4426.256334
4428.079403
4410.621767
4444.273640
4406.474323
4441.162361
4466.001677
4390.056324
4458.200369
4447.606970
4367.936932
4462.230227
4414.838531
4434.508070
4415.342353
4412.196364
4440.392324
4370.955188
4473.083586
4420.125776
4402.721519
4435.567457
4437.165997
4429.316310
4427.942217
4422.211435
4430.890348
4425.857780
4422.692474
4450.113831
4432.212218
4427.600967
4442.373895
4449.808625
4397.427175
4429.713747
4449.815212
4414.992677
4377.108713
4437.913164
4434.674951
4424.223543
4425.956639
4416.266598
4426.767030
4430.479985
4424.164616
4474.774789
4400.930352
4393.028438
4441.961707
4434.561062
4432.473686
4415.210265
4426.630372
4426.172069
4432.322452
4435.344283
4424.907158
4431.754342
4417.710744
4427.473262
4439.838276
4408.042759
4437.336514
4449.291023
4437.497232
4387.297935
4439.923282
4450.285622
4423.314315
4462.576353
4414.885409
4439.195202
4420.111942
4422.956319
4430.312066
4422.009519
4440.999221
4455.531770
4371.105206
4405.081518
4472.193575
4452.855649
4421.109900
4427.607321
4437.156420
4431.469198
4420.886365
4428.754762
4436.984954
4430.635115
4438.454193
4421.325693
4436.038351
4415.868685
4419.623280
4402.927553
4444.753243
4434.161430
4438.260618
4460.689987
4393.767378
4464.335508
4399.185750
4410.057277
4436.412908
4435.104204
4437.689860
4401.569268
4437.573012
4466.659603
4453.994525
4409.003378
4424.146391
4454.407213
4436.197141
4429.313184
4418.511323
4441.602658
4428.925492
4419.059943
4416.667589
4436.283881
4403.672665
4445.051029
4409.797345
4430.176323
4465.280683
4435.806703
4433.253234
4382.353163
4448.698888
4408.905207
4424.541607
4431.863390
4387.152283
4438.334236
4420.822409
4429.689231
4450.063851
4453.319043
4420.359608
4339.939436
4460.222177
4390.112081
4416.851651
4431.964408
4436.496185
4430.250886
4434.951538
4416.379165
4442.506582
4435.665755
4432.568332
4423.016514
4429.724448
4432.776005
4396.140629
4422.990754
4424.681871
4413.241969
4441.579700
4409.835321
4436.270156
4514.241139
4415.848916
4440.406055
4434.800103
4417.865061
4419.965209
4434.439591
4426.068278
4442.381015
4474.228835
4473.933773
4491.514023
4452.598137
4432.117261
4435.561454
4429.497218
4420.037723
4435.289321
4418.883415
4427.124719
4411.726971
4440.513880
4408.978644
4432.585024
4441.692378
4443.159644
4422.986540
4451.604718
4376.150285
4428.296361
4498.857327
4555.911604
4382.651323
4379.375586
4411.496237
4419.452535
4444.726531
4447.543489
4380.966361
4455.372421
4408.549054
4400.943347
4405.115504
4449.434702
4433.498661
4432.084245
4432.386385
4433.824630
4432.117388
4415.962698
4432.344599
4442.427568
4424.899227
4410.565660
4452.760753
4404.442033
4442.191074
4392.689588
4466.213976
4404.990724
4500.134435
4351.486879
4321.156923
4480.325982
4398.630417
4412.127931
4439.663332
4429.625163
4489.890720
4444.079914
4417.176423
4440.358905
4391.630613
4426.587986
4412.387198
4432.573295
4429.432854
4433.154016
4420.494263
4432.299596
4430.987734
4410.412763
4410.658776
4390.801058
4451.784107
4440.280482
4408.445856
4454.681780
4408.930607
4421.726478
4457.656453
4394.217229
4483.993286
4485.115556
4419.062246
4404.147689
4424.146089
4449.818536
4414.119889
4377.543983
4457.046981
4448.320204
4419.260252
4401.032775
4432.120404
4429.428585
4434.168412
4428.171226
4433.116717
4436.225813
4433.229667
4425.631763
4431.688098
4437.422090
4431.448441
4422.937532
4441.025967
4426.800386
4422.090763
4447.861134
4435.489354
4425.607655
4395.425712
4490.133845
4354.964864
4367.108449
4427.283002
4424.595702
4435.482746
4443.957932
4400.524832
4437.651381
4426.559521
4440.444848
4467.674056
4437.721478
4439.454213
4432.216892
4429.856512
4428.223253
4435.708164
4426.730050
4430.130275
4425.628414
4410.020627
4441.744147
4447.583992
4398.474396
4440.495040
4407.722392
4429.565896
4385.782982
4466.199147
4353.316858
4465.498475
4398.930188
4447.566582
4393.492462
4429.950310
4429.787046
4444.552362
4459.792239
4401.631446
4460.382725
4454.025258
4412.064030
4410.915279
4421.985761
4431.441046
4426.625630
4430.161907
4422.861134
4436.626662
4434.749931
4429.415141
4445.906072
4406.523655
4418.853816
4425.612675
4446.296932
4422.993732
4436.024818
4443.088263
4451.915803
4380.752829
4449.036963
4430.706606
4571.069553
4374.887673
4471.789518
4421.441586
4437.328389
4431.015368
4389.224513
4452.513911
4401.842147
4407.512418
4426.401657
4415.195262
4430.910697
4431.318696
4435.355148
4430.562633
4424.584419
4428.000270
4413.309392
4434.351933
4431.424875
4422.287344
4432.339290
4414.641522
4408.840199
4430.472483
4409.180950
4463.309451
4453.367300
4464.413594
4372.248461
4379.797594
4429.545258
4409.929539
4422.123718
4459.897188
4419.697922
4394.956397
4420.422034
4441.894645
4462.206816
4408.305936
4408.439554
4433.594440
4431.733542
4423.572941
4432.465418
4427.307905
4441.375212
4429.564085
4420.060740
4422.318201
4434.220621
4412.919471
4439.928676
4446.973321
4430.070555
4396.133952
4452.083379
4419.739631
4443.100204
4400.984753
4462.238368
4412.990450
4444.688650
4413.603245
4418.960511
4437.356739
4418.374692
4401.322457
4448.626426
4357.439976
4422.297976
4447.264275
4428.858892
4428.126717
4431.742000
4438.932801
4420.352120
4414.252435
4428.195747
4445.132038
4411.311403
4433.606507
4424.096454
4416.602015
4458.196862
4397.026402
4405.850375
4466.983900
4377.159004
4395.115979
4437.066020
4446.547177
4421.035162
4424.126378
4432.374405
4457.621638
4405.751996
4441.945496
4473.408475
4374.702972
4472.407091
4369.071014
4423.947445
4427.520300
4432.680262
4431.609627
4418.245112
4430.010603
4451.870181
4417.361762
4412.524850
4417.607891
4446.408605
4399.546504
4433.539066
4431.733739
4433.663331
4443.848971
4404.252046
4446.173558
4427.576294
4402.983015
4442.061944
4422.838313
4417.699064
4469.009912
4421.029443
4438.248967
4459.199738
4438.308622
4360.820448
4440.435148
4416.441725
4455.104178
4428.377836
4426.748129
4423.518270
4434.057078
4426.572877
4407.519365
4429.453145
4436.011795
4425.042870
4423.960546
4428.187428
4442.215522
4414.340514
4411.495429
4403.554212
4429.502655
4397.324636
4465.618903
4436.755833
4491.411121
4409.624888
4413.789323
4451.463626
4418.693951
4441.774212
4437.706481
4464.975906
4418.607757
4460.180234
4432.639176
4439.896360
4429.178793
4433.691916
4429.437228
4431.533447
4424.828473
4431.218723
4432.387236
4400.569609
4429.174217
4427.273560
4431.440819
4425.094792
4430.675436
4421.988249
4447.921231
4456.623356
4401.808301
4455.834782
4361.600387
4417.622398
4429.873873
4407.865073
4456.662770
4448.768358
4416.707027
4414.588921
4422.189233
4422.878677
4404.472149
4420.552665
4416.934294
4427.799303
4433.333587
4420.948701
4427.613742
4419.582774
4433.420931
4408.784369
4440.123180
4439.869059
4412.083267
4413.795958
4449.066426
4401.720741
4427.233131
4411.021274
4427.404476
4421.541206
4468.538285
4411.099389
4448.632905
4418.504823
4513.094613
4426.063177
4366.678892
4420.615949
4441.934536
4420.634989
4443.869216
4495.063991
4422.812026
4450.522056
4430.302898
4429.811927
4426.444754
4442.523775
4428.176370
4428.997245
4426.224009
4433.625469
4388.001600
4446.145282
4430.252881
4423.857475
4412.214461
4448.925697
4414.739554
4470.471090
4398.711714
4475.148300
4401.260931
4431.943504
4414.537281
4422.518365
4429.111421
4430.260356
4417.237935
4442.237904
4413.499370
4435.076180
4389.379772
4381.917472
4437.274287
4426.182867
4431.777177
4429.423492
4420.294011
4423.024756
4445.768158
4418.076698
4421.136656
4440.262595
4439.673589
4395.991162
4439.836891
4432.541198
4437.531590
4424.288811
4424.472535
4405.695169
4452.341536
4426.218382
4431.562885
4408.830370
4429.183236
4419.726097
4424.895150
4492.515123
4396.934985
4411.635139
4437.774559
4390.148233
4433.788198
4405.866375
4425.699855
4430.169199
4424.699079
4436.035656
4448.762589
4407.703260
4432.051483
4437.416530
4399.342279
4416.395537
4440.624610
4433.212858
4423.973024
4399.529698
4451.065497
4437.174769
4397.951175
4367.874216
4387.933689
4464.144033
4443.451658
4410.270103
4400.396114
4399.914380
4446.782445
4427.379664
4436.485590
4464.582509
4460.170057
4429.087211
4462.094429
4433.224193
4432.841926
4428.929974
4423.595697
4418.305154
4441.831403
4437.055405
4412.548608
4440.395467
4421.702221
4435.355327
4396.403061
4457.351270
4437.186661
4405.694494
4437.850111
4406.702479
4493.967328
4457.234555
4437.852189
4445.707930
4420.587341
4448.705991
4420.893052
4439.992349
4434.954125
4422.727361
4432.925173
4425.815643
4414.591457
4415.504512
4428.817572
4428.187098
4435.713660
4438.504075
4432.407634
4433.808258
4413.411025
4424.771073
4452.262869
4401.825521
4432.119521
4446.185322
4417.160562
4427.266911
4439.263373
4447.545433
4384.442634
4447.700959
4390.330366
4367.189823
4432.858688
4435.293679
4421.482584
4392.932953
4474.201405
4380.272177
4421.280312
4422.022531
4462.627609
4366.725752
4418.362585
4434.026688
4430.920545
4427.218795
4418.769074
4433.665994
4422.425965
4439.272330
4438.804955
4391.104054
4453.488517
4428.786523
4422.143575
4420.559395
4444.807662
4406.707298
4452.427673
4412.259391
4387.587667
4476.145461
4469.257580
4449.069213
4400.925857
4403.429307
4432.474031
4446.296818
4429.347265
4371.366147
4457.886618
4426.447471
4451.834835
4424.067904
4437.617172
4432.223033
4434.088352
4434.353230
4424.613208
4438.728148
4398.570191
4421.869413
4432.337535
4436.650874
4391.369627
4453.262873
4429.664867
4440.725821
4415.102742
4424.402270
4440.032808
4463.319889
4341.925195
4473.666007
4457.710261
4420.231412
4494.060966
4430.882765
4451.921134
4461.489892
4445.495186
4428.184236
4393.024399
4408.691082
4437.683907
4436.392460
4424.301707
4420.448307
4422.719993
4416.973465
4440.515414
4406.707614
4453.451925
4397.332900
4425.317867
4419.997594
4439.665959
4400.397517
4432.243525
4401.711795
4439.321015
4386.815539
4441.958934
4315.384040
4500.304835
4491.013947
4424.864906
4406.294602
4523.002400
4380.159947
4441.879327
4390.234179
4467.410397
4358.547227
4426.171523
4440.493250
4429.077293
4436.492016
4434.413274
4432.060066
4436.118778
4429.037618
4435.844740
4410.476365
4425.560740
4438.500109
4410.247063
4413.655773
4413.744124
4447.514246
4405.829258
4464.522948
4374.067422
4475.606939
4460.862403
4507.564190
4423.008423
4418.724749
4361.419994
4423.293694
4414.599739
4430.098769
4456.390703
4466.819495
4442.719683
4379.620961
4453.457004
4423.205756
4426.642837
4433.227129
4414.406531
4428.760605
4421.725026
4432.275146
4424.236528
4427.671267
4414.497743
4426.618712
4445.798338
4410.965199
4436.955999
4416.242402
4431.144016
4430.886523
4447.715792
4443.226454
4502.600879
4650.686861
4421.308461
4508.313445
4413.509316
4417.235255
4469.285683
4390.923129
4415.908172
4445.937045
4434.809809
4415.112770
4428.613153
4425.702180
4426.847840
4439.216715
4421.056157
4424.707080
4436.438320
4438.729780
4422.436371
4457.183357
4435.673514
4428.294759
4410.980034
4429.861109
4421.645097
4430.732138
4431.127246
4401.325574
4413.171556
4427.809685
4389.921926
4415.638098
4416.059415
4409.695794
4430.359358
4457.372228
4366.644736
4367.265705
4496.322832
4463.772240
4413.826030
4420.036144
4435.260154
4416.789400
4416.292105
4422.701578
4440.547449
4402.640414
4424.966380
4435.761455
4393.673495
4413.564313
4430.154957
4434.035707
4441.016744
4418.990458
4450.873106
4380.024139
4447.915928
4451.720585
4454.895455
4426.998547
4474.647327
4421.664664
4423.615199
4422.340406
4460.496492
4476.720332
4436.604781
4375.026148
4427.457161
4396.442706
4424.751478
4434.498820
4418.767338
4446.047638
4431.546847
4407.490131
4434.781169
4442.168722
4403.620229
4451.758472
4448.483364
4421.261516
4413.418797
4403.943522
4437.764197
4418.379537
4446.901955
4367.693392
4440.851161
4480.143366
4419.968778
4442.743462
4420.270838
4420.629062
4470.313170
4455.763945
4417.438068
4534.399120
4368.666696
4448.758345
4420.960344
4428.550144
4430.407549
4421.361801
4429.982632
4420.018150
4435.280378
4417.440708
4428.898976
4442.434402
4436.715243
4381.063343
4397.441405
4425.796548
4423.035273
4417.704270
4432.264919
4390.928769
4416.677813
4424.797815
4459.342895
4433.908726
4389.487894
4442.677955
4439.696145
4473.046980
4433.690757
4467.663014
4416.354860
4351.887975
4393.488739
4419.817996
4422.779151
4421.108240
4435.061555
4420.571829
4432.045873
4431.919857
4418.301531
4428.054386
4427.308317
4412.904765
4423.664727
4459.201913
4414.259552
4423.177386
4422.666461
4432.478070
4473.522309
4394.507238
4420.155094
4442.140168
4415.592521
4423.041445
4471.375702
4376.466611
4372.231510
4484.345518
4417.172605
4392.658434
4456.947104
4466.109680
4415.070087
4429.267212
4419.586077
4429.104988
4419.839425
4441.764714
4406.407075
4436.193869
4403.806174
4417.905456
4436.767124
4413.889839
4427.989889
4427.555821
4440.377146
4398.497697
4450.473462
4382.595502
4426.338218
4360.016802
4428.784811
4427.580130
4466.203474
4383.917228
4460.508251
4433.721764
4444.809085
4392.109190
4388.183529
4471.683322
4356.350414
4418.876187
4423.711890
4420.742725
4435.602419
4422.832376
4419.660880
4444.495997
4442.622066
4434.230144
4445.216553
4416.120247
4414.271782
4416.294249
4450.144828
4405.930990
4428.208595
4420.788658
4395.765388
4453.372949
4449.528539
4465.940622
4433.577564
4410.780607
4467.644208
4415.761576
4479.036503
4461.674549
4461.224194
4470.288062
4456.365328
4410.796501
4412.777097
4424.282394
4428.236132
4424.943918
4420.612015
4435.833851
4401.675845
4424.002438
4435.554621
4414.505656
4422.074266
4426.576159
4451.618319
4383.742434
4442.175945
4433.161545
4394.096275
4412.522767
4419.201568
4389.508391
4462.225622
4450.707469
4432.811333
4346.401469
4448.385562
4416.883227
4384.127035
4459.034828
4404.136722
4451.614461
4428.826976
4405.610440
4423.550160
4425.062088
4432.042451
4411.230556
4442.591279
4422.993457
4430.035384
4406.871816
4407.550940
4445.545284
4427.441668
4419.381843
4438.345780
4439.587404
4461.914383
4447.967079
4393.525941
4454.028940
4401.376409
4440.513784
4413.586940
4395.397772
4436.556740
4417.152130
4448.441145
4435.886908
4423.104002
4394.999001
4440.813998
4384.175863
4465.487631
4425.604614
4428.151685
4435.125647
4428.961584
4409.149994
4449.633026
4430.991843
4430.452972
4419.244983
4440.568286
4430.672099
4426.257576
4394.035461
4414.477453
4415.072663
4448.499192
4429.965237
4477.927849
4422.681887
4348.562796
4406.949052
4465.351521
4445.745155
4408.528013
4454.803965
4442.310475
4453.000518
4359.055729
4429.015718
4414.093682
4362.641242
4436.315453
4432.779405
4414.258793
4427.330941
4433.097174
4413.612802
4415.988794
4433.869020
4422.506813
4414.705019
4416.396972
4434.636565
4432.567654
4453.880113
4419.336067
4409.264755
4459.554378
4422.876668
4378.362200
4533.839381
4384.438473
4425.806193
4511.638595
4425.085025
4439.973921
4419.966782
4448.752395
4457.899161
4478.452546
4396.431348
4433.131459
4428.286532
4432.225299
4435.816597
4436.975654
4407.757538
4427.178962
4419.831038
4419.468340
4413.941071
4430.924619
4420.344878
4410.018820
4405.655109
4436.796383
4423.378865
4430.647498
4465.245920
4450.041099
4400.721119
4429.555055
4497.540751
4492.229292
4450.791323
4419.378317
4466.053228
4435.565030
4397.458508
4449.010207
4467.913211
4436.591153
4482.087082
4428.828569
4437.655535
4423.374092
4431.046737
4426.649876
4436.247217
4435.117623
4417.960821
4402.257440
4431.234507
4442.455442
4431.120441
4435.841901
4430.026858
4416.077687
4441.242994
4402.104041
4405.794097
4434.680259
4448.340685
4695.883167
4547.703805
4448.069249
4485.154715
4466.659027
4459.118989
4440.449128
4385.044466
4356.448543
4343.948863
4377.368953
4430.491934
4442.310159
4407.390546
4428.410572
4434.766354
4417.024890
4431.199330
4435.900337
4435.036110
4428.778671
4418.088161
4413.627559
4431.104324
4417.483580
4434.068227
4422.119182
4426.589366
4453.361878
4406.459226
4434.505059
4447.810075
4409.713089
4452.521861
4421.700025
4463.958151
4437.138703
4431.211613
4431.039697
4473.782495
4429.763928
4448.888191
4429.524593
4415.784990
4442.082957
4427.180556
4407.143855
4439.483102
4412.757987
4408.901275
4415.523971
4440.204075
4428.501129
4459.367435
4416.955117
4418.433635
4433.004758
4425.802106
4433.101136
4418.880048
4391.543488
4404.708175
4384.377345
4485.312764
4449.950022
4458.771385
4394.322149
4423.269950
4430.743721
4396.380041
4458.888621
4399.326321
4416.891730
4436.838657
4423.989824
4428.282670
4449.617490
4440.077289
4404.798359
4442.448695
4409.075395
4432.313976
4416.241464
4419.093740
4425.397980
4414.897519
4445.579238
4418.888241
4447.030890
4440.903137
4468.844937
4476.261719
4380.184300
4435.961669
4421.690756
4461.236501
4369.716273
4436.281435
4464.849725
4399.734354
4452.239499
4421.560934
4421.551855
4384.519285
4420.850583
4436.572000
4413.160162
4395.489905
4434.386852
4427.408815
4461.947059
4442.047680
4412.288717
4424.022870
4440.331142
4412.423395
4426.572857
4425.694214
4402.328384
4416.343558
4406.861015
4454.303870