# vtk DataFile Version 2.0
mfree iwf
ASCII

DATASET UNSTRUCTURED_GRID
POINTS 6231 float
0.000000 0.000300 0.000000
0.000000 0.000310 0.000000
0.000000 0.000320 0.000000
0.000000 0.000330 0.000000
0.000000 0.000340 0.000000
0.000001 0.000350 0.000000
0.000001 0.000360 0.000000
0.000001 0.000370 0.000000
0.000001 0.000380 0.000000
0.000001 0.000390 0.000000
0.000001 0.000400 0.000000
0.000001 0.000410 0.000000
0.000001 0.000420 0.000000
0.000001 0.000430 0.000000
0.000002 0.000440 0.000000
0.000002 0.000451 0.000000
0.000002 0.000460 0.000000
0.000002 0.000471 0.000000
0.000002 0.000480 0.000000
0.000002 0.000492 0.000000
0.000006 0.000501 0.000000
0.000326 0.000669 0.000000
0.000350 0.000747 0.000000
0.000331 0.000687 0.000000
0.000356 0.000760 0.000000
0.000369 0.000779 0.000000
0.000402 0.000815 0.000000
0.000408 0.000819 0.000000
0.000420 0.000824 0.000000
0.000431 0.000831 0.000000
0.000462 0.000852 0.000000
0.000010 0.000300 0.000000
0.000010 0.000310 0.000000
0.000010 0.000320 0.000000
0.000010 0.000330 0.000000
0.000010 0.000340 0.000000
0.000010 0.000350 0.000000
0.000011 0.000360 0.000000
0.000011 0.000370 0.000000
0.000011 0.000380 0.000000
0.000011 0.000390 0.000000
0.000011 0.000400 0.000000
0.000011 0.000410 0.000000
0.000011 0.000420 0.000000
0.000012 0.000430 0.000000
0.000012 0.000440 0.000000
0.000012 0.000451 0.000000
0.000012 0.000460 0.000000
0.000012 0.000472 0.000000
0.000013 0.000478 0.000000
0.000010 0.000492 0.000000
0.000013 0.000498 0.000000
0.000384 0.000790 0.000000
0.000393 0.000799 0.000000
0.000400 0.000805 0.000000
0.000407 0.000809 0.000000
0.000423 0.000816 0.000000
0.000431 0.000822 0.000000
0.000444 0.000829 0.000000
0.000452 0.000837 0.000000
0.000457 0.000840 0.000000
0.000459 0.000847 0.000000
0.000020 0.000300 0.000000
0.000020 0.000310 0.000000
0.000020 0.000320 0.000000
0.000020 0.000330 0.000000
0.000020 0.000340 0.000000
0.000021 0.000351 0.000000
0.000021 0.000360 0.000000
0.000021 0.000371 0.000000
0.000020 0.000380 0.000000
0.000022 0.000390 0.000000
0.000021 0.000400 0.000000
0.000022 0.000410 0.000000
0.000020 0.000420 0.000000
0.000023 0.000431 0.000000
0.000020 0.000440 0.000000
0.000024 0.000451 0.000000
0.000021 0.000460 0.000000
0.000022 0.000470 0.000000
0.000021 0.000481 0.000000
0.000024 0.000494 0.000000
0.000020 0.000497 0.000000
0.000368 0.000760 0.000000
0.000383 0.000782 0.000000
0.000390 0.000792 0.000000
0.000398 0.000794 0.000000
0.000410 0.000797 0.000000
0.000417 0.000808 0.000000
0.000441 0.000821 0.000000
0.000450 0.000830 0.000000
0.000464 0.000831 0.000000
0.000471 0.000835 0.000000
0.000030 0.000300 0.000000
0.000030 0.000310 0.000000
0.000030 0.000320 0.000000
0.000031 0.000331 0.000000
0.000030 0.000340 0.000000
0.000031 0.000349 0.000000
0.000030 0.000360 0.000000
0.000031 0.000370 0.000000
0.000030 0.000380 0.000000
0.000032 0.000391 0.000000
0.000030 0.000400 0.000000
0.000032 0.000411 0.000000
0.000031 0.000420 0.000000
0.000032 0.000430 0.000000
0.000031 0.000440 0.000000
0.000031 0.000450 0.000000
0.000032 0.000459 0.000000
0.000037 0.000473 0.000000
0.000030 0.000478 0.000000
0.000033 0.000488 0.000000
0.000032 0.000497 0.000000
0.000063 0.000500 0.000000
0.000384 0.000776 0.000000
0.000399 0.000781 0.000000
0.000421 0.000801 0.000000
0.000431 0.000801 0.000000
0.000429 0.000811 0.000000
0.000440 0.000809 0.000000
0.000447 0.000816 0.000000
0.000457 0.000821 0.000000
0.000475 0.000827 0.000000
0.000040 0.000300 0.000000
0.000040 0.000310 0.000000
0.000040 0.000321 0.000000
0.000040 0.000329 0.000000
0.000040 0.000340 0.000000
0.000040 0.000351 0.000000
0.000041 0.000360 0.000000
0.000041 0.000370 0.000000
0.000041 0.000380 0.000000
0.000040 0.000390 0.000000
0.000042 0.000399 0.000000
0.000041 0.000410 0.000000
0.000042 0.000420 0.000000
0.000040 0.000431 0.000000
0.000043 0.000439 0.000000
0.000043 0.000450 0.000000
0.000043 0.000460 0.000000
0.000037 0.000469 0.000000
0.000045 0.000478 0.000000
0.000043 0.000496 0.000000
0.000040 0.000498 0.000000
0.000326 0.000550 0.000000
0.000397 0.000774 0.000000
0.000409 0.000786 0.000000
0.000417 0.000784 0.000000
0.000418 0.000794 0.000000
0.000440 0.000797 0.000000
0.000458 0.000810 0.000000
0.000467 0.000810 0.000000
0.000467 0.000821 0.000000
0.000479 0.000819 0.000000
0.000050 0.000300 0.000000
0.000050 0.000310 0.000000
0.000050 0.000319 0.000000
0.000049 0.000331 0.000000
0.000052 0.000340 0.000000
0.000050 0.000349 0.000000
0.000052 0.000360 0.000000
0.000049 0.000371 0.000000
0.000053 0.000380 0.000000
0.000050 0.000390 0.000000
0.000053 0.000400 0.000000
0.000049 0.000410 0.000000
0.000054 0.000420 0.000000
0.000050 0.000430 0.000000
0.000054 0.000440 0.000000
0.000047 0.000451 0.000000
0.000055 0.000459 0.000000
0.000053 0.000470 0.000000
0.000056 0.000483 0.000000
0.000049 0.000488 0.000000
0.000050 0.000498 0.000000
0.000375 0.000776 0.000000
0.000351 0.000737 0.000000
0.000408 0.000776 0.000000
0.000428 0.000785 0.000000
0.000435 0.000791 0.000000
0.000449 0.000806 0.000000
0.000449 0.000793 0.000000
0.000456 0.000798 0.000000
0.000473 0.000808 0.000000
0.000484 0.000809 0.000000
0.000060 0.000300 0.000000
0.000060 0.000310 0.000000
0.000061 0.000321 0.000000
0.000060 0.000329 0.000000
0.000061 0.000339 0.000000
0.000059 0.000351 0.000000
0.000063 0.000361 0.000000
0.000059 0.000369 0.000000
0.000064 0.000381 0.000000
0.000058 0.000390 0.000000
0.000064 0.000399 0.000000
0.000059 0.000410 0.000000
0.000065 0.000419 0.000000
0.000058 0.000430 0.000000
0.000066 0.000440 0.000000
0.000060 0.000449 0.000000
0.000066 0.000460 0.000000
0.000055 0.000471 0.000000
0.000065 0.000475 0.000000
0.000068 0.000486 0.000000
0.000059 0.000496 0.000000
0.000369 0.000770 0.000000
0.000388 0.000769 0.000000
0.000412 0.000768 0.000000
0.000420 0.000776 0.000000
0.000433 0.000777 0.000000
0.000447 0.000784 0.000000
0.000469 0.000791 0.000000
0.000464 0.000798 0.000000
0.000477 0.000799 0.000000
0.000488 0.000801 0.000000
0.000070 0.000300 0.000000
0.000070 0.000310 0.000000
0.000070 0.000319 0.000000
0.000070 0.000330 0.000000
0.000072 0.000342 0.000000
0.000068 0.000350 0.000000
0.000075 0.000357 0.000000
0.000067 0.000372 0.000000
0.000073 0.000377 0.000000
0.000069 0.000390 0.000000
0.000074 0.000401 0.000000
0.000068 0.000411 0.000000
0.000075 0.000421 0.000000
0.000067 0.000429 0.000000
0.000075 0.000438 0.000000
0.000066 0.000452 0.000000
0.000077 0.000459 0.000000
0.000073 0.000470 0.000000
0.000076 0.000486 0.000000
0.000068 0.000496 0.000000
0.000076 0.000496 0.000000
0.000326 0.000536 0.000000
0.000380 0.000760 0.000000
0.000400 0.000765 0.000000
0.000429 0.000766 0.000000
0.000439 0.000778 0.000000
0.000452 0.000777 0.000000
0.000459 0.000785 0.000000
0.000467 0.000782 0.000000
0.000481 0.000791 0.000000
0.000491 0.000791 0.000000
0.000080 0.000300 0.000000
0.000080 0.000310 0.000000
0.000080 0.000321 0.000000
0.000081 0.000330 0.000000
0.000079 0.000339 0.000000
0.000081 0.000350 0.000000
0.000077 0.000364 0.000000
0.000083 0.000368 0.000000
0.000082 0.000382 0.000000
0.000079 0.000391 0.000000
0.000084 0.000397 0.000000
0.000078 0.000410 0.000000
0.000084 0.000417 0.000000
0.000079 0.000431 0.000000
0.000087 0.000446 0.000000
0.000077 0.000447 0.000000
0.000086 0.000463 0.000000
0.000074 0.000470 0.000000
0.000087 0.000473 0.000000
0.000086 0.000482 0.000000
0.000084 0.000495 0.000000
0.000363 0.000761 0.000000
0.000345 0.000737 0.000000
0.000414 0.000760 0.000000
0.000424 0.000764 0.000000
0.000441 0.000768 0.000000
0.000452 0.000767 0.000000
0.000461 0.000771 0.000000
0.000475 0.000780 0.000000
0.000484 0.000781 0.000000
0.000495 0.000782 0.000000
0.000090 0.000300 0.000000
0.000090 0.000310 0.000000
0.000090 0.000320 0.000000
0.000090 0.000330 0.000000
0.000090 0.000340 0.000000
0.000092 0.000351 0.000000
0.000090 0.000359 0.000000
0.000092 0.000369 0.000000
0.000089 0.000380 0.000000
0.000093 0.000389 0.000000
0.000091 0.000403 0.000000
0.000091 0.000411 0.000000
0.000089 0.000424 0.000000
0.000096 0.000427 0.000000
0.000088 0.000435 0.000000
0.000097 0.000455 0.000000
0.000087 0.000453 0.000000
0.000097 0.000471 0.000000
0.000106 0.000480 0.000000
0.000089 0.000495 0.000000
0.000095 0.000495 0.000000
0.000326 0.000569 0.000000
0.000378 0.000755 0.000000
0.000366 0.000750 0.000000
0.000394 0.000760 0.000000
0.000436 0.000758 0.000000
0.000450 0.000761 0.000000
0.000469 0.000769 0.000000
0.000477 0.000769 0.000000
0.000488 0.000772 0.000000
0.000498 0.000773 0.000000
0.000100 0.000300 0.000000
0.000100 0.000310 0.000000
0.000100 0.000320 0.000000
0.000100 0.000331 0.000000
0.000101 0.000340 0.000000
0.000100 0.000349 0.000000
0.000101 0.000360 0.000000
0.000101 0.000372 0.000000
0.000101 0.000379 0.000000
0.000102 0.000391 0.000000
0.000099 0.000399 0.000000
0.000103 0.000408 0.000000
0.000101 0.000417 0.000000
0.000100 0.000436 0.000000
0.000110 0.000443 0.000000
0.000097 0.000445 0.000000
0.000107 0.000460 0.000000
0.000098 0.000467 0.000000
0.000095 0.000481 0.000000
0.000106 0.000491 0.000000
0.000101 0.000494 0.000000
0.000332 0.000693 0.000000
0.000334 0.000700 0.000000
0.000344 0.000731 0.000000
0.000428 0.000753 0.000000
0.000444 0.000753 0.000000
0.000457 0.000755 0.000000
0.000469 0.000760 0.000000
0.000473 0.000755 0.000000
0.000488 0.000765 0.000000
0.000501 0.000763 0.000000
0.000110 0.000300 0.000000
0.000110 0.000310 0.000000
0.000110 0.000321 0.000000
0.000110 0.000329 0.000000
0.000110 0.000340 0.000000
0.000111 0.000351 0.000000
0.000111 0.000360 0.000000
0.000110 0.000369 0.000000
0.000112 0.000379 0.000000
0.000110 0.000390 0.000000
0.000112 0.000400 0.000000
0.000111 0.000413 0.000000
0.000115 0.000423 0.000000
0.000107 0.000426 0.000000
0.000112 0.000434 0.000000
0.000107 0.000450 0.000000
0.000115 0.000461 0.000000
0.000111 0.000471 0.000000
0.000116 0.000480 0.000000
0.000111 0.000493 0.000000
0.000119 0.000492 0.000000
0.000326 0.000621 0.000000
0.000326 0.000591 0.000000
0.000375 0.000745 0.000000
0.000402 0.000753 0.000000
0.000397 0.000746 0.000000
[...]
POINT_DATA 6231
SCALARS density float 1
LOOKUP_TABLE default
4402.435908
4423.181513
4419.873744
4423.568140
4425.895534
4426.126948
4426.375587
4426.514761
4428.468204
4428.915922
4426.787227
4430.159069
4429.441634
4430.197091
4430.096668
4440.390582
4422.778881
4432.324668
4412.947353
4423.480976
4411.414870
4449.021023
4422.261171
4425.876342
4439.340791
4423.252833
4406.562819
4445.068990
4438.090347
4448.074462
4418.180767
4404.918793
4419.401737
4424.259556
4423.952715
4420.944767
4426.499833
4424.408741
4419.341598
4427.954563
4431.238135
4426.346015
4431.868642
4425.825626
4437.025365
4415.785477
4429.106588
4410.033424
4442.509587
4460.928756
4460.254616
4415.800093
4402.175896
4382.178415
4412.505071
4487.686491
4407.011801
4411.095519
4421.095849
4413.431590
4432.986012
4459.890224
4413.502232
4434.580025
4421.080035
4424.543906
4426.300168
4422.377164
4430.468328
4440.335225
4425.115077
4423.867514
4429.241953
4433.702064
4415.480698
4441.019256
4416.665421
4473.765614
4400.107991
4454.426745
4352.455135
4449.921280
4420.217216
4420.245830
4419.140506
4410.526364
4548.626831
4362.726170
4368.799469
4450.410977
4404.210881
4432.934636
4404.616070
4423.286747
4422.731279
4414.710669
4429.570294
4432.303298
4434.043501
4420.498580
4419.240892
4416.682425
4445.398987
4411.287990
4436.778213
4422.868323
4443.930915
4403.581002
4430.940103
4391.213841
4457.403968
4369.601448
4555.673609
4370.664583
4431.572526
4458.229905
4450.572812
4473.512417
4387.211455
4478.025907
4425.215227
4417.409681
4505.537876
4450.691067
4428.859322
4425.588744
4442.013447
4441.776769
4410.929414
4432.027688
4424.862596
4441.127102
4421.906494
4437.228879
4405.243980
4450.175698
4398.265547
4443.684352
4414.388448
4450.452120
4387.227690
4507.047564
4311.468581
4419.874028
4384.262884
4568.291460
4415.383648
4363.847902
4472.708815
4469.777234
4430.418506
4390.367607
4431.546265
4382.616554
4416.977592
4435.144712
4422.500580
4416.645824
4415.806120
4443.324114
4443.279626
4398.803287
4443.176427
4401.720657
4437.823378
4420.816675
4445.304517
4397.212624
4464.523436
4359.213812
4479.536409
4356.323162
4478.217570
4363.284450
4534.776370
4383.356262
4440.101657
4425.198249
4474.620397
4389.246542
4426.491717
4438.153484
4435.048630
4420.093816
4456.269152
4416.158643
4422.428633
4430.575310
4438.783417
4445.349889
4414.161343
4434.504697
4427.243795
4444.790729
4423.499119
4449.358031
4408.608211
4437.416331
4430.549085
4443.788248
4422.731669
4473.464929
4405.988756
4517.840628
4370.781385
4482.442173
4431.508656
4417.912856
4390.075693
4407.398685
4425.940967
4425.033291
4430.164753
4440.180240
4423.220129
4415.390346
4446.250490
4420.550705
4434.182574
4418.071571
4416.791806
4432.708627
4431.572221
4432.491713
4433.641478
4415.027984
4423.936881
4428.181040
4428.097151
4420.526004
4423.221164
4447.672424
4458.742090
4439.436366
4461.045859
4447.965606
4411.964587
4386.942048
4641.918278
4449.653764
4427.074263
4457.551963
4446.064790
4402.406422
4421.612150
4452.039681
4406.625551
4419.551938
4425.091290
4436.268011
4407.414603
4443.993481
4433.870604
4419.389329
4413.000439
4423.315455
4440.957471
4432.423115
4407.362642
4415.805901
4425.462604
4440.912692
4466.846885
4389.858073
4454.553581
4451.313110
4356.346992
4467.708579
4411.633570
4429.274480
4420.186672
4426.169100
4426.755650
4411.591746
4446.768109
4422.787157
4442.896900
4438.799500
4435.332229
4425.537786
4434.517007
4431.482879
4427.960740
4396.975735
4449.153262
4425.229590
4427.571138
4439.808711
4403.470878
4441.586721
4418.783708
4418.946102
4456.892555
4409.656183
4378.706407
4442.334062
4439.129080
4427.596176
4426.451334
4415.881502
4627.909245
4443.010775
4425.596833
4470.386152
4430.716943
4448.227099
4459.153039
4394.404985
4416.217956
4420.682429
4430.083084
4426.429954
4420.146177
4431.214549
4441.997922
4437.114179
4408.923542
4436.224813
4423.609038
4429.077599
4446.536973
4417.249659
4421.273055
4400.889009
4441.598759
4446.138269
4417.265985
4469.877310
4414.368363
4437.339694
4419.240477
4428.375229
4433.258759
4419.698361
4409.903621
4408.443087
4431.295049
4414.318820
4490.944151
4462.887380
4406.339086
4430.966898
4431.372210
4439.482980
4429.216478
4411.549584
4411.242541
4449.919571
4440.782874
4414.720796
4442.193903
4404.673551
4450.304076
4395.466489
4455.158248
4409.601221
4446.607530
4464.584778
4385.217296
4467.375669
4398.848600
4412.491363
4483.337162
4494.600576
4428.104877
4397.887668
4435.570653
4439.775923
4437.001522
4422.141540
4416.319879
4446.204627
4437.799044
4421.097762
4424.849345
4420.278737
4441.922695
4442.016275
4408.126239
4413.725595
4441.215884
4434.836778
4416.839909
4436.343543
4427.720802
4444.901420
4431.939405
4373.507105
4430.620608
4394.807813
4416.949598
4439.127216
4393.591540
4436.124535
4406.753884
4420.796302
4445.762104
4415.647003
4425.350115
4391.536089
4412.648074
4408.288945
4413.514303
4430.810638
4428.072150
4437.558923
4431.795480
4414.726898
4417.141550
4431.441014
4445.933677
4424.049641
4400.012825
4442.114020
4423.311256
4431.738403
4425.573462
4403.680657
4435.571709
4418.595482
4449.220913
4499.226456
4421.037383
4416.961491
4471.821944
4422.181735
4421.528532
4430.510058
4427.553798
4452.425741
4421.978352
4471.858589
4474.198245
4421.895354
4430.200115
4436.572352
4434.029402
4411.806990
4424.414778
4444.292472
4424.193754
4407.168476
4431.122306
4432.860305
4441.690661
4395.417660
4442.156761
4404.411164
4447.011828
4389.386399
4418.069212
4500.151832
4570.505758
4386.969878
4372.985323
4407.143864
4407.885072
4442.934185
4453.569397
4398.826095
4480.378392
4434.816976
4388.073957
4416.439085
4436.240362
4427.340743
4433.282575
4414.989088
4444.887941
4442.641845
4396.478110
4425.657056
4442.613167
4429.970622
4400.319198
4432.152202
4422.385109
4446.727498
4387.561670
4459.653688
4403.889240
4484.706201
4350.173642
4329.657535
4505.942669
4395.963386
4421.565785
4431.640701
4429.461175
4469.451660
4464.197061
4417.377197
4397.332112
4437.685582
4429.622880
4410.410748
4423.761354
4441.416545
4434.074516
4412.892906
4419.803959
4443.097024
4442.782114
4397.572043
4422.861650
4441.190322
4430.652619
4393.691453
4435.852376
4419.470619
4432.756734
4416.338086
4418.802146
4495.231584
4488.789249
4423.557148
4404.506631
4439.917099
4440.958939
4438.168247
4387.702516
4428.573493
4441.726838
4425.040107
4420.052859
4440.471018
4421.545278
4434.227532
4427.369969
4418.897383
4443.750316
4434.622380
4416.395387
4415.746662
4444.119699
4440.468908
4399.557668
4426.669484
4446.529673
4426.092997
4437.699195
4395.252896
4449.719059
4404.298642
4469.515784
4332.731911
4356.297818
4432.815559
4402.855297
4418.000456
4401.473351
4389.901080
4458.752235
4431.541598
4445.759216
4452.325914
4408.706520
4422.327676
4431.457999
4428.202891
4430.596825
4442.405785
4411.416224
4439.685787
4430.669439
4419.840374
4409.389439
4458.919473
4414.254881
4415.122286
4410.862213
4442.372856
4405.877031
4450.593220
4326.531546
4478.388030
4388.620753
4452.278806
4399.611410
4422.335534
4468.916611
4441.440700
4475.941364
4383.586650
4460.001126
4459.050007
4433.486859
4444.291076
4421.915804
4428.386205
4427.973772
4428.762516
4415.024908
4428.436842
4448.619075
4403.150511
4438.128914
4420.076814
4433.675586
4396.540968
4454.458981
4404.852176
4443.955274
4395.622766
4448.052431
4458.395528
4487.992344
4426.387998
4558.315429
4387.968094
4499.145871
4472.680864
4425.938093
4454.905390
4416.579945
4401.539869
4404.479849
4423.279705
4443.089432
4392.121593
4424.929988
4425.977738
4424.499608
4436.859686
4432.352247
4414.253853
4426.820930
4449.863791
4401.164335
4429.262262
4418.683993
4449.016724
4380.021262
4448.846830
4421.425241
4412.775686
4401.797914
4470.404625
4363.489042
4393.743662
4517.292517
4460.073113
4387.788353
4459.806876
4416.559710
4383.129254
4425.828420
4442.783048
4456.455726
4384.474656
4386.985023
4418.812634
4442.232362
4430.062560
4419.889234
4412.754330
4429.956845
4441.647568
4403.045796
4421.602409
4449.621229
4425.261508
4401.999003
4452.882015
4413.579717
4421.452459
4474.353693
4389.926030
4475.583545
4400.568491
4476.169713
4414.586047
4444.726456
4382.449698
4442.495115
4403.396539
4440.680757
4449.872780
4426.978054
4377.136326
4430.808426
4456.000498
4430.205437
4428.935161
4408.676815
4442.805310
4435.296529
4412.174155
4405.201398
4434.277934
4449.350769
4384.465056
4441.851213
4417.835835
4440.963210
4438.797713
4406.540216
4423.761110
4401.463307
4443.063229
4388.625361
4446.133841
4514.521243
4429.063120
4454.503173
4477.838619
4464.161165
4419.129570
4475.212961
4371.964442
4500.421315
4392.759683
4418.850770
4424.175719
4427.766153
4434.951050
4436.838122
4406.522297
4438.768405
4432.966308
4405.673354
4423.304714
4439.073670
4422.907855
4432.865824
4390.617283
4436.094854
4427.182704
4420.851170
4443.718558
4420.080095
4421.513300
4419.290964
4415.209456
4419.992126
4445.048408
4366.325427
4436.715213
4444.069255
4398.707552
4387.247961
4491.389601
4430.483055
4436.405831
4424.087846
4427.628343
4425.249733
4410.576704
4435.774117
4431.081521
4414.462920
4443.191740
4409.523095
4429.957344
4393.531206
4443.176449
4431.145331
4422.474110
4408.074606
4451.916494
4397.500445
4426.889137
4451.416614
4512.235611
4423.366353
4453.237233
4422.529385
4437.693778
4472.702252
4444.629120
4458.856030
4410.015103
4430.990633
4433.728439
4455.470137
4426.927199
4425.733701
4422.300945
4440.051043
4436.784397
4415.673039
4408.221480
4443.535498
4410.431383
4421.887728
4433.079995
4398.514606
4394.752549
4426.128757
4421.657016
4462.520104
4401.692846
4451.755622
4367.091991
4418.122184
4425.722856
4404.353597
4468.691774
4425.578875
4430.058818
4428.821264
4444.180871
4453.034771
4446.792841
4411.220767
4410.680547
4421.566292
4442.380102
4427.183407
4423.598937
4399.034377
4448.378882
4444.151094
4403.123303
4423.554591
4421.837465
4413.955236
4437.263012
4430.229490
4426.498627
4384.940916
4436.145052
4406.073419
4466.256822
4383.759888
4466.501280
4428.885484
4620.492143
4417.696550
4446.908856
4462.823724
4428.640451
4441.381712
4418.375543
4454.137605
4388.648767
4429.684072
4433.283052
4432.845794
4407.881516
4438.582886
4448.911798
4414.739939
4405.120396
4438.232281
4426.137881
4417.290399
4422.871840
4407.297058
4404.548228
4419.346637
4422.255970
4442.004918
4404.993123
4465.518309
4411.709232
4438.911123
4415.741165
4405.022876
4456.723669
4463.151968
4436.169387
4439.858940
4439.034083
4426.040328
4456.630005
4381.067544
4421.439113
4428.409130
4418.646156
4445.492477
4434.595947
4405.758915
4430.959348
4435.740654
4432.396930
4401.078486
4424.249010
4423.602871
4418.602244
4435.029335
4430.833655
4391.818510
4415.471902
4404.996276
4376.243225
4432.987638
4428.243796
4392.128563
4420.989189
4454.891944
4439.576870
4464.016237
4454.670455
4424.051021
4457.532186
4420.905911
4451.176135
4413.755285
4422.139928
4422.557691
4430.774170
4409.268454
4440.315624
4448.625000
4405.669178
4405.188972
4438.644204
4430.630781
4411.913442
4416.270703
4419.147381
4391.797596
4474.041916
4440.456299
4450.988755
4414.728075
4375.712133
4476.008769
4477.197426
4405.885676
4473.889239
4493.981429
4454.758052
4465.140133
4455.251383
4467.200556
4412.049221
4437.577434
4450.037967
4424.850541
4435.875355
4418.751482
4437.096273
4442.098205
4385.232072
4444.837141
4441.336433
4411.362658
4397.439330
4438.162475
4402.843368
4441.399788
4429.099424
4402.714512
4386.833630
4410.544905
4467.775564
4478.293987
4430.766502
4427.022130
4473.756442
4472.655423
4478.800888
4463.215315
4429.330340
4456.661609
4412.147784
4407.936163
4437.061220
4401.744790
4424.515841
4428.545825
4431.418091
4425.788234
4411.785057
4442.068357
4446.451919
4381.457792
4440.062861
4430.054468
4424.518374
4415.459773
4403.182308
4411.279094
4425.595556
4461.238545
4440.439574
4439.452428
4402.154818
4445.053445
4429.179759
4457.821271
4497.398809
4457.717534
4430.629522
4431.780505
4461.565785
4427.957591
4480.103640
4360.959335
4433.926224
4433.410154
4425.955800
4425.673927
4425.075758
4434.665095
4433.505052
4394.563361
4441.742084
4440.502946
4402.427801
4418.085985
4413.234066
4419.889856
4427.297828
4386.321991
4414.340769
4405.563782
4414.223620
4426.085128
4460.032874
4429.362764
4368.406310
4450.771529
4454.352976
4447.297466
4473.392788
4450.380736
4408.439570
4446.297312
4437.556488
4408.487426
4434.415931
4421.057751
4442.634053
4425.031842
4426.241576
4401.420987
4433.670662
4448.861908
4381.219447
4439.797281
4444.670342
4418.768394
4421.127179
4400.869998
4427.078034
4423.185653
4442.496183
4442.812032
4413.960048
4435.487313
4492.720342
4433.363652
4456.110324
4454.557215
4451.873896
4464.738209
4419.209528
4379.133798
4372.863399
4388.136645
4421.036770
4429.077543
4430.064865
4431.945048
4413.256496
4438.657786
4441.605787
4411.535306
4388.325379
4442.060218
4448.508371
4377.878360
4437.323438
4413.331089
4410.239121
4430.028464
4406.173295
4418.191968
4401.057055
4414.527903
4447.188652
4492.658339
4410.871405
4458.866471
4459.072194
4457.124444
4452.838533
4456.838959
4454.223243
4420.507059
4501.382163
4449.945853
4431.716569
4433.817306
4422.878150
4443.267424
4422.467309
4406.487680
4437.818291
4433.162520
4421.875054
4388.688743
4444.429468
4445.472543
4400.307490
4431.749784
4400.490980
4431.663617
4430.520151
4441.647734
4465.045081
4410.199926
4448.913850
4454.122415
4453.226834
4457.546265
4436.323336
4449.765674
4485.901732
4450.216984
4409.939650
4476.974147
4426.487829
4426.585276
4428.662975
4427.818542
4438.031184
4405.955897
4440.077040
4423.957140
4393.950150
4415.029371
4431.210096
4435.929229
4384.507053
4449.305617
4430.623765
4410.202447
4425.129495
4416.923929
4409.253585
4417.785171
4424.154814
4457.196414
4418.119646
4454.272033
4439.912986
4445.351909
4432.678813
4461.893751
4438.021167
4439.985433
4384.298290
4415.157061
4426.818223
4418.906690
4441.884253
4421.203257
4429.179892
4424.149775
4417.603176
4435.435165
4447.460498
4422.397025
4395.120127
4453.072498
4425.637301
4414.904407
4432.872168
4411.962983
4424.086676
4421.916646
4436.235951
4434.807994
4403.208276
4443.477519
4406.253527
4467.901628
4424.158628
4442.661624
4459.154756
4457.804042
4433.012786
4443.556046
4432.297356
4429.910400
4421.751631
4421.887038
4412.285780
4457.777196
4402.977638
4436.387091
4433.348573
4391.170270
4437.769053
4424.574474
4408.701350
4395.653612
4438.676141
4442.248443
4418.426923
4414.585899
4413.602865
4415.289778
4433.934560
4423.422844
4422.160362
4471.732937
4443.702849
4449.833874
4453.420758
4437.947305
4429.729197
4468.297112
4451.959392
4465.018173
4421.387479
4424.113709
4440.920420
4427.525574
4414.071847
4420.151726
4440.429888
4424.773075
4441.342347
4445.707945
4403.652446
4432.290710
4423.496079
4416.978350
4410.152521
4428.753454
4416.318088
4417.998658
4439.166709
4404.420454
4429.985105
4430.724011
4455.046844
4437.167450
4447.448067
4452.478983
4433.678165
4407.703208
4461.075245
4455.723479
4448.362768
4421.832818
4433.011246
4409.962909
4420.957544
4437.056975
4419.579130
4410.224153
4419.532279
4421.149337
4397.373364
4431.568450
4405.169782
4408.611746
4409.255791
4426.970356
4405.156806
4445.269625
4426.036581
4449.177519
4432.971366
4440.668365
4406.495251
4450.147696
4447.813551
4428.761859
4433.836310
4450.784638
4442.723685
4466.219308
4419.051088
4456.739822
4422.686257
4429.794284
4427.104735
4436.212341
4436.585342
4442.833450
4425.366036
4447.321123
4411.966874
4435.578348
4452.481973
4392.532233
4438.786347
4441.098166
4416.378829
4433.178330
4432.445270
4399.524477
4439.498301
4419.593164
4424.140363
4440.887521
4440.315979
4438.038611
4443.146085
4436.897803
4446.649610
4444.134541
4446.137285
4465.853372
4457.702851
4425.419828
4428.270119
4416.388060
4421.819854
4388.717128
4445.549603
4427.145591
4410.146486
4417.328967
4415.839610
4392.189138
4430.608822
4441.134384
4429.208014
4405.354835
4410.897149
4426.452030
4425.502850
4441.301538
4445.735792
4439.392407
4396.801767
4440.261268
4420.485927
4444.333920
4445.494737
4439.074458
4442.048954
4441.235428
4437.954148
4459.355693
4422.436591
4421.845898
4431.343543
4434.917097
4426.448513
4439.871075
4419.100989
4460.597689
4402.788864
4442.957501
4409.232989
4444.917598
4387.549942
4439.507703
4421.833546
4439.595013
4417.355131
4419.786312
4452.260043
4401.339398
4429.132965
4435.569195
4468.230467
4443.663623
4442.244252
4409.524561
4456.538166
4468.731848
4428.487284
4438.298524
4462.169010
4422.749955
4426.913909
4433.264537
4394.981586
4421.621655
4414.421561
4430.796148
4431.873910
4430.053994
4430.697874
4431.165567
4405.631672
4435.049045
4447.979487
4430.133975
4421.081050
4433.205143
4438.967334
4443.462790
4399.366258
4432.454119
4441.734295
4415.436953
4395.807027
4457.287417
4434.686228
4426.874883
4495.313342
4400.692871
4443.923674
4469.802938
4433.566457
4428.540703
4420.725301
4430.772415
4450.941346
4439.837466
4445.339080
4417.544880
4422.175761
4432.304856
4458.288575
4443.333701
4410.158731
4389.769611
4412.605363
4470.891136
4421.997803
4444.223268
4409.858285
4432.002428
4444.399994
4445.220257
4458.709724
4463.820004
4393.563884
4455.018613
4478.709398
4448.093659
4460.231251
4455.900562
4474.852491
4423.825262
4424.786577
4428.896201
4418.931667
4401.006723
4447.046916
4421.579113
4415.308414
4430.016197
4433.740824
4395.643242
4390.339314
4459.180665
4457.968379
4410.055025
4438.628787
4429.582893
4419.552037
4447.824565
4436.272822
4406.378348
4426.045069
4411.322734
4445.800454
4474.027837
4448.941905
4418.607152
4461.745313
4490.172265
4406.954781
4473.913277
4427.803647
4435.301839
4439.771603
4428.625673
4431.539306
4425.438198
4433.314287
4413.079433
4441.962093
4440.586880
4445.214338
4454.452688
4385.960068
4409.502715
4438.660039
4407.243237
4438.027334
4439.844761
4422.555360
4422.624604
4447.124178
4411.012326
4435.006287
4428.878580
4457.593044
4420.496517
4471.853699
4446.855229
4453.710365
4456.368093
4471.196348
4437.733986
4431.423847
4424.109354
4423.900236
4440.018507
4409.095198
4420.518063
4440.454810
4408.128716
4398.194878
4424.376184
4422.530451
4441.930071
4449.606086
4382.737462
4445.764527
4453.326851
4430.611574
4422.527728
4441.798063
4443.206463
4456.027768
4432.742302
4442.773985
4448.911759
4462.670220
4450.566178
4439.905997
4481.977050
4433.931206
4467.756578
4444.559270
4417.042098
4449.787517
4447.446574
4419.807324
4434.840271
4447.410371
4409.074016
4445.973644
4433.609794
4421.117048
4420.923602
4427.567584
4440.971858
4464.193088
4431.970654
4413.511679
4452.425161
4429.425130
4398.778109
4460.180362
4447.776471
4423.327403
4449.982376
4446.314874
4450.519109
4455.949055
4452.502275
4472.823442
4463.759651
4462.559040
4430.936706
4433.715308
4422.201360
4414.894716
4437.810010
4428.977600
4396.305226
4446.605419
4435.102530
4436.084174
4398.678469
4455.496196
4415.356911
4414.661913
4454.190120
4404.828744
4437.347736
4434.792738
4442.500442
4420.898604
4440.491609
4438.621857
4446.317120
4412.026408
4453.835315
4457.310423
4440.512283
4462.115785
4464.375838
4448.939632
4457.465889
4427.184653
4445.050884
4437.120351
4431.916607
4443.400444
4399.118429
4437.220772
4411.076822
4392.102573
4462.448367
4425.081031
4460.802842
4439.975248
4404.339202
4396.611205
4440.167975
4455.170389
4406.605489
4437.848423
4438.962133
4429.686052
4458.822508
4449.070722
4419.284929
4459.692766
4437.766198
4451.065343
4452.064993
4454.308762
4456.414489
4452.922228
4440.338094
4430.986733
4409.494226
4463.958471
4412.263593
4465.484776
4438.946027
4439.095678
4443.290002
4410.407766
4413.016199
4396.789319
4458.377615
4454.037658
4442.673045
4448.072569
4424.826870
4457.558370
4431.477174
4423.507010
4438.032744
4437.313246
4426.539468
4451.318353
4436.619728
4438.394638
4451.036679
4451.317960
4456.844695
4462.753658
4452.437005
4430.433914
4421.219327
4424.468544
4421.712697
4416.917934
4442.372188
4392.651423
4450.848418
4417.774342
4443.212757
4452.309018
4441.227649
4443.173963
4452.794949
4389.147185
4459.215138
4453.586142
4438.580668