# vtk DataFile Version 2.0
mfree iwf
ASCII

DATASET UNSTRUCTURED_GRID
POINTS 6231 float
0.000000 0.000300 0.000000
0.000000 0.000310 0.000000
0.000000 0.000320 0.000000
0.000000 0.000330 0.000000
0.000000 0.000340 0.000000
0.000000 0.000350 0.000000
0.000001 0.000360 0.000000
0.000001 0.000370 0.000000
0.000001 0.000380 0.000000
0.000001 0.000390 0.000000
0.000001 0.000400 0.000000
0.000001 0.000410 0.000000
0.000001 0.000420 0.000000
0.000001 0.000430 0.000000
0.000002 0.000440 0.000000
0.000002 0.000451 0.000000
0.000002 0.000460 0.000000
0.000002 0.000471 0.000000
0.000002 0.000480 0.000000
0.000002 0.000492 0.000000
0.000006 0.000501 0.000000
0.000387 0.000719 0.000000
0.000421 0.000792 0.000000
0.000394 0.000736 0.000000
0.000430 0.000804 0.000000
0.000444 0.000822 0.000000
0.000482 0.000853 0.000000
0.000488 0.000856 0.000000
0.000501 0.000859 0.000000
0.000513 0.000865 0.000000
0.000546 0.000882 0.000000
0.000010 0.000300 0.000000
0.000010 0.000310 0.000000
0.000010 0.000320 0.000000
0.000010 0.000330 0.000000
0.000010 0.000340 0.000000
0.000010 0.000350 0.000000
0.000011 0.000360 0.000000
0.000011 0.000370 0.000000
0.000011 0.000380 0.000000
0.000011 0.000390 0.000000
0.000011 0.000400 0.000000
0.000011 0.000410 0.000000
0.000011 0.000420 0.000000
0.000011 0.000430 0.000000
0.000012 0.000440 0.000000
0.000012 0.000451 0.000000
0.000012 0.000460 0.000000
0.000012 0.000472 0.000000
0.000013 0.000478 0.000000
0.000010 0.000492 0.000000
0.000013 0.000498 0.000000
0.000461 0.000831 0.000000
0.000471 0.000838 0.000000
0.000479 0.000844 0.000000
0.000486 0.000846 0.000000
0.000503 0.000851 0.000000
0.000512 0.000856 0.000000
0.000525 0.000861 0.000000
0.000535 0.000868 0.000000
0.000540 0.000870 0.000000
0.000542 0.000877 0.000000
0.000020 0.000300 0.000000
0.000020 0.000310 0.000000
0.000020 0.000320 0.000000
0.000020 0.000330 0.000000
0.000020 0.000340 0.000000
0.000020 0.000350 0.000000
0.000021 0.000360 0.000000
0.000021 0.000370 0.000000
0.000020 0.000380 0.000000
0.000022 0.000391 0.000000
0.000020 0.000400 0.000000
0.000022 0.000410 0.000000
0.000020 0.000420 0.000000
0.000023 0.000431 0.000000
0.000020 0.000440 0.000000
0.000024 0.000451 0.000000
0.000021 0.000460 0.000000
0.000022 0.000470 0.000000
0.000021 0.000481 0.000000
0.000024 0.000494 0.000000
0.000020 0.000497 0.000000
0.000441 0.000802 0.000000
0.000459 0.000823 0.000000
0.000468 0.000831 0.000000
0.000475 0.000832 0.000000
0.000487 0.000833 0.000000
0.000496 0.000844 0.000000
0.000521 0.000854 0.000000
0.000533 0.000861 0.000000
0.000545 0.000860 0.000000
0.000553 0.000862 0.000000
0.000030 0.000300 0.000000
0.000030 0.000310 0.000000
0.000030 0.000320 0.000000
0.000031 0.000330 0.000000
0.000030 0.000340 0.000000
0.000031 0.000350 0.000000
0.000030 0.000360 0.000000
0.000031 0.000370 0.000000
0.000031 0.000380 0.000000
0.000031 0.000390 0.000000
0.000031 0.000400 0.000000
0.000031 0.000411 0.000000
0.000031 0.000420 0.000000
0.000032 0.000430 0.000000
0.000031 0.000440 0.000000
0.000031 0.000450 0.000000
0.000031 0.000459 0.000000
0.000037 0.000473 0.000000
0.000030 0.000478 0.000000
0.000033 0.000488 0.000000
0.000032 0.000497 0.000000
0.000063 0.000500 0.000000
0.000458 0.000816 0.000000
0.000474 0.000819 0.000000
0.000499 0.000836 0.000000
0.000508 0.000835 0.000000
0.000509 0.000845 0.000000
0.000518 0.000842 0.000000
0.000527 0.000847 0.000000
0.000536 0.000851 0.000000
0.000556 0.000854 0.000000
0.000040 0.000300 0.000000
0.000040 0.000310 0.000000
0.000040 0.000320 0.000000
0.000040 0.000329 0.000000
0.000040 0.000340 0.000000
0.000040 0.000350 0.000000
0.000040 0.000360 0.000000
0.000041 0.000370 0.000000
0.000041 0.000380 0.000000
0.000041 0.000390 0.000000
0.000042 0.000399 0.000000
0.000041 0.000410 0.000000
0.000042 0.000420 0.000000
0.000040 0.000431 0.000000
0.000042 0.000439 0.000000
0.000043 0.000450 0.000000
0.000043 0.000460 0.000000
0.000037 0.000469 0.000000
0.000045 0.000478 0.000000
0.000043 0.000496 0.000000
0.000040 0.000498 0.000000
0.000380 0.000575 0.000000
0.000471 0.000814 0.000000
0.000485 0.000823 0.000000
0.000494 0.000821 0.000000
0.000495 0.000830 0.000000
0.000518 0.000830 0.000000
0.000538 0.000842 0.000000
0.000546 0.000838 0.000000
0.000547 0.000850 0.000000
0.000559 0.000846 0.000000
0.000050 0.000300 0.000000
0.000050 0.000310 0.000000
0.000050 0.000319 0.000000
0.000050 0.000331 0.000000
0.000051 0.000340 0.000000
0.000050 0.000350 0.000000
0.000052 0.000360 0.000000
0.000049 0.000370 0.000000
0.000052 0.000379 0.000000
0.000050 0.000390 0.000000
0.000053 0.000400 0.000000
0.000049 0.000411 0.000000
0.000053 0.000420 0.000000
0.000051 0.000430 0.000000
0.000054 0.000440 0.000000
0.000047 0.000451 0.000000
0.000055 0.000458 0.000000
0.000053 0.000470 0.000000
0.000056 0.000483 0.000000
0.000049 0.000488 0.000000
0.000050 0.000498 0.000000
0.000450 0.000818 0.000000
0.000422 0.000782 0.000000
0.000483 0.000813 0.000000
0.000503 0.000818 0.000000
0.000512 0.000824 0.000000
0.000527 0.000836 0.000000
0.000525 0.000824 0.000000
0.000534 0.000832 0.000000
0.000551 0.000837 0.000000
0.000562 0.000835 0.000000
0.000060 0.000300 0.000000
0.000060 0.000310 0.000000
0.000061 0.000321 0.000000
0.000059 0.000329 0.000000
0.000062 0.000339 0.000000
0.000059 0.000350 0.000000
0.000062 0.000359 0.000000
0.000060 0.000370 0.000000
0.000063 0.000381 0.000000
0.000059 0.000390 0.000000
0.000064 0.000400 0.000000
0.000060 0.000409 0.000000
0.000064 0.000419 0.000000
0.000058 0.000430 0.000000
0.000066 0.000440 0.000000
0.000060 0.000449 0.000000
0.000066 0.000460 0.000000
0.000055 0.000471 0.000000
0.000065 0.000475 0.000000
0.000068 0.000486 0.000000
0.000059 0.000496 0.000000
0.000444 0.000812 0.000000
0.000463 0.000808 0.000000
0.000485 0.000804 0.000000
0.000494 0.000811 0.000000
0.000508 0.000809 0.000000
0.000521 0.000812 0.000000
0.000547 0.000821 0.000000
0.000538 0.000825 0.000000
0.000554 0.000827 0.000000
0.000565 0.000827 0.000000
0.000070 0.000300 0.000000
0.000070 0.000310 0.000000
0.000070 0.000319 0.000000
0.000070 0.000330 0.000000
0.000071 0.000341 0.000000
0.000068 0.000351 0.000000
0.000077 0.000357 0.000000
0.000067 0.000371 0.000000
0.000075 0.000377 0.000000
0.000069 0.000390 0.000000
0.000074 0.000400 0.000000
0.000068 0.000411 0.000000
0.000075 0.000421 0.000000
0.000068 0.000429 0.000000
0.000075 0.000438 0.000000
0.000066 0.000452 0.000000
0.000077 0.000459 0.000000
0.000073 0.000470 0.000000
0.000076 0.000486 0.000000
0.000068 0.000496 0.000000
0.000076 0.000496 0.000000
0.000380 0.000567 0.000000
0.000452 0.000802 0.000000
0.000474 0.000803 0.000000
0.000504 0.000800 0.000000
0.000513 0.000817 0.000000
0.000530 0.000809 0.000000
0.000535 0.000818 0.000000
0.000541 0.000810 0.000000
0.000557 0.000818 0.000000
0.000568 0.000817 0.000000
0.000080 0.000300 0.000000
0.000080 0.000310 0.000000
0.000080 0.000321 0.000000
0.000081 0.000330 0.000000
0.000080 0.000340 0.000000
0.000080 0.000349 0.000000
0.000075 0.000365 0.000000
0.000083 0.000367 0.000000
0.000081 0.000384 0.000000
0.000078 0.000390 0.000000
0.000087 0.000397 0.000000
0.000079 0.000409 0.000000
0.000085 0.000417 0.000000
0.000079 0.000430 0.000000
0.000087 0.000445 0.000000
0.000077 0.000447 0.000000
0.000086 0.000463 0.000000
0.000074 0.000470 0.000000
0.000087 0.000473 0.000000
0.000085 0.000483 0.000000
0.000084 0.000495 0.000000
0.000436 0.000804 0.000000
0.000415 0.000783 0.000000
0.000489 0.000794 0.000000
0.000496 0.000801 0.000000
0.000514 0.000799 0.000000
0.000523 0.000801 0.000000
0.000533 0.000799 0.000000
0.000550 0.000808 0.000000
0.000559 0.000808 0.000000
0.000570 0.000807 0.000000
0.000090 0.000300 0.000000
0.000090 0.000310 0.000000
0.000090 0.000320 0.000000
0.000090 0.000329 0.000000
0.000090 0.000340 0.000000
0.000092 0.000352 0.000000
0.000089 0.000359 0.000000
0.000092 0.000370 0.000000
0.000088 0.000379 0.000000
0.000092 0.000388 0.000000
0.000086 0.000406 0.000000
0.000094 0.000408 0.000000
0.000088 0.000425 0.000000
0.000096 0.000426 0.000000
0.000089 0.000436 0.000000
0.000097 0.000456 0.000000
0.000087 0.000453 0.000000
0.000097 0.000471 0.000000
0.000106 0.000480 0.000000
0.000089 0.000495 0.000000
0.000095 0.000495 0.000000
0.000380 0.000588 0.000000
0.000450 0.000796 0.000000
0.000437 0.000793 0.000000
0.000466 0.000800 0.000000
0.000507 0.000791 0.000000
0.000525 0.000792 0.000000
0.000543 0.000800 0.000000
0.000550 0.000796 0.000000
0.000561 0.000799 0.000000
0.000572 0.000798 0.000000
0.000100 0.000300 0.000000
0.000100 0.000310 0.000000
0.000100 0.000320 0.000000
0.000101 0.000331 0.000000
0.000100 0.000339 0.000000
0.000099 0.000349 0.000000
0.000101 0.000360 0.000000
0.000100 0.000372 0.000000
0.000101 0.000380 0.000000
0.000101 0.000392 0.000000
0.000099 0.000398 0.000000
0.000104 0.000409 0.000000
0.000100 0.000418 0.000000
0.000100 0.000435 0.000000
0.000110 0.000443 0.000000
0.000096 0.000445 0.000000
0.000107 0.000460 0.000000
0.000098 0.000467 0.000000
0.000095 0.000481 0.000000
0.000106 0.000491 0.000000
0.000101 0.000494 0.000000
0.000396 0.000741 0.000000
0.000399 0.000749 0.000000
0.000413 0.000777 0.000000
0.000499 0.000788 0.000000
0.000515 0.000786 0.000000
0.000527 0.000785 0.000000
0.000543 0.000790 0.000000
0.000542 0.000782 0.000000
0.000561 0.000791 0.000000
0.000573 0.000788 0.000000
0.000110 0.000300 0.000000
0.000110 0.000310 0.000000
0.000110 0.000320 0.000000
0.000110 0.000329 0.000000
0.000111 0.000340 0.000000
0.000110 0.000351 0.000000
0.000112 0.000361 0.000000
0.000110 0.000369 0.000000
0.000112 0.000379 0.000000
0.000109 0.000389 0.000000
0.000112 0.000400 0.000000
0.000110 0.000412 0.000000
0.000116 0.000422 0.000000
0.000107 0.000427 0.000000
0.000112 0.000434 0.000000
0.000107 0.000449 0.000000
0.000115 0.000461 0.000000
0.000111 0.000471 0.000000
0.000116 0.000480 0.000000
0.000111 0.000493 0.000000
0.000119 0.000492 0.000000
0.000381 0.000671 0.000000
0.000380 0.000612 0.000000
0.000446 0.000787 0.000000
0.000474 0.000791 0.000000
0.000468 0.000783 0.000000
[...]
POINT_DATA 6231
SCALARS density float 1
LOOKUP_TABLE default
4402.819308
4423.889772
4421.535731
4422.157241
4425.032683
4426.147592
4425.456370
4426.707512
4430.325431
4429.148951
4426.255450
4431.595027
4429.177878
4429.722616
4430.646814
4440.145986
4423.163902
4432.180540
4412.501401
4423.665630
4411.178470
4430.549092
4423.777294
4430.941815
4440.674007
4423.607331
4405.795601
4438.942556
4438.845071
4450.458520
4419.802156
4408.566042
4425.512434
4423.312564
4420.853829
4423.625270
4427.120205
4424.931177
4420.867204
4425.839919
4427.663143
4423.345356
4430.742612
4424.553588
4437.383683
4416.000951
4427.832952
4409.913856
4443.532057
4460.954198
4460.436821
4416.084675
4397.495567
4387.146613
4419.964782
4485.681769
4395.655316
4409.884860
4419.443714
4420.102537
4445.851484
4463.592684
4416.038008
4428.133655
4417.636338
4432.566751
4427.185874
4416.976230
4430.548147
4438.698346
4421.301557
4432.299058
4429.969876
4434.913868
4416.767269
4439.871103
4415.848171
4475.524121
4399.742568
4454.058698
4351.977628
4449.644436
4420.632605
4414.623953
4419.533623
4408.420550
4543.499254
4355.589157
4381.537928
4447.139460
4403.857966
4415.082644
4402.896943
4419.760661
4423.773492
4426.831001
4423.542999
4426.512630
4439.338291
4423.840438
4422.777779
4419.560781
4437.553031
4407.567388
4436.931630
4420.156430
4444.969263
4402.930595
4430.725634
4391.010152
4458.442330
4369.173800
4556.559673
4370.553336
4431.818958
4453.500464
4454.868775
4471.490441
4368.605364
4485.597588
4429.054204
4399.730207
4516.330494
4450.767301
4427.314868
4432.092848
4434.319254
4434.691393
4425.806358
4430.421445
4419.357147
4442.018408
4423.617392
4435.750816
4415.272708
4449.388276
4401.629539
4443.819742
4414.728732
4449.871573
4386.341081
4508.118650
4308.364468
4419.947349
4383.826746
4544.916363
4420.974268
4362.494737
4478.410255
4475.185912
4449.546762
4382.793768
4430.825630
4395.856806
4423.110899
4437.108668
4427.961216
4413.006334
4438.130475
4422.707638
4435.337508
4411.689366
4440.354850
4406.974090
4440.024457
4413.667387
4439.664968
4402.077251
4459.779406
4360.414834
4481.154132
4356.163398
4478.827094
4361.403422
4536.887210
4383.096276
4442.326130
4424.612314
4450.599160
4369.740664
4431.596267
4440.955685
4381.106861
4437.455236
4438.588554
4413.288225
4423.600626
4433.573325
4437.428928
4446.237126
4412.225238
4456.291099
4399.960806
4443.474577
4414.251537
4451.867609
4413.766372
4443.205515
4421.837780
4439.111644
4419.324278
4473.669579
4400.304254
4518.041778
4372.471404
4481.216772
4431.985045
4418.732925
4405.354859
4436.879631
4443.969160
4434.542678
4413.214231
4399.627950
4428.954359
4448.214531
4427.393150
4422.822935
4432.638281
4421.634160
4415.251909
4443.655616
4423.197131
4427.749343
4454.564265
4400.342456
4440.964675
4392.586681
4431.133647
4411.134500
4437.815413
4440.452434
4459.643430
4438.004214
4461.356185
4447.773327
4412.692750
4388.058047
4524.312606
4447.458841
4426.766531
4464.324972
4470.715556
4422.570621
4459.732508
4439.242364
4441.430744
4411.667501
4427.277796
4427.341512
4417.597040
4439.099634
4427.040047
4423.842282
4436.601178
4421.440998
4458.627170
4434.703633
4408.483677
4435.770595
4411.209103
4441.240354
4465.398650
4391.654543
4453.887207
4452.575106
4357.888626
4466.640503
4411.977667
4429.755981
4412.162384
4418.586549
4431.226728
4412.222711
4439.258604
4385.221725
4423.843337
4433.953508
4439.920997
4423.347502
4433.964629
4432.486449
4428.073165
4403.658700
4439.477871
4421.911399
4434.355498
4421.470627
4412.191876
4458.603775
4397.653425
4427.044754
4463.294446
4415.814836
4376.397442
4441.384878
4435.217275
4425.392353
4426.319768
4416.263118
4489.709599
4444.803119
4425.263471
4469.618370
4416.438466
4440.120383
4473.843721
4418.709341
4417.386579
4418.536926
4433.596702
4432.376794
4414.866222
4430.341569
4436.451933
4444.897781
4403.567806
4439.698708
4417.833320
4440.633147
4447.311247
4435.695643
4431.071559
4391.338021
4444.651745
4450.552905
4416.769229
4472.233224
4414.286551
4438.240782
4420.595655
4430.780822
4433.692816
4420.504935
4422.567211
4419.632575
4459.057330
4408.268389
4492.715368
4454.975914
4413.423994
4429.858144
4421.595907
4434.418382
4441.535020
4405.584159
4417.959145
4446.186101
4434.397493
4419.698437
4439.491407
4396.317424
4447.416111
4396.464375
4431.826353
4432.887570
4445.072931
4463.957121
4388.823888
4467.251020
4398.405679
4411.282865
4419.876932
4486.471300
4434.082146
4412.042363
4435.496916
4460.917883
4419.211488
4414.255305
4426.157675
4448.431985
4426.555402
4427.587250
4435.267257
4409.239964
4441.926934
4440.507105
4412.660814
4419.642598
4435.772199
4437.537475
4432.527507
4435.610358
4430.654602
4436.078148
4413.692835
4374.031215
4435.823510
4394.665106
4420.052896
4439.106304
4393.502324
4433.701473
4410.117705
4426.236813
4457.187640
4446.712647
4364.893801
4377.293628
4439.734485
4398.191678
4416.885143
4430.850088
4436.741468
4419.821625
4427.148347
4440.061160
4410.026411
4425.988455
4437.987169
4428.221377
4402.307872
4427.124552
4425.582656
4436.233286
4428.501926
4411.497813
4450.478409
4423.175552
4442.098703
4495.114553
4420.700729
4422.797491
4432.847198
4408.414481
4420.552030
4419.353573
4426.693140
4441.400135
4475.647829
4452.959123
4471.513699
4438.556604
4432.414947
4434.948321
4430.308193
4433.076793
4402.160670
4438.581281
4447.649990
4404.884239
4439.620991
4425.082889
4443.135334
4404.477980
4436.813440
4408.569618
4441.385457
4379.278500
4408.755496
4503.414211
4571.358129
4387.891903
4372.711756
4409.005120
4416.258073
4450.622768
4451.840168
4390.248560
4447.614370
4442.676339
4404.436375
4405.934620
4439.832173
4429.284795
4436.068191
4423.601565
4434.047825
4434.555705
4413.669326
4409.788235
4440.954867
4431.163263
4397.577676
4445.166988
4411.313113
4447.005827
4389.618612
4463.346163
4416.641596
4485.333471
4350.952387
4327.196949
4507.552602
4393.896635
4413.219309
4425.641717
4441.791462
4478.189937
4475.892833
4417.982461
4407.756499
4431.920469
4420.573344
4412.176488
4428.417712
4440.176886
4423.747036
4418.791320
4438.150212
4426.024105
4435.165551
4418.730229
4423.286235
4446.506306
4424.744749
4399.862829
4445.132131
4421.743288
4433.558706
4412.126937
4416.494382
4499.551145
4489.636619
4422.804894
4403.717739
4426.060321
4440.155435
4427.428946
4387.410734
4440.504445
4437.043949
4413.387575
4420.975909
4443.946955
4423.327391
4433.362428
4424.446077
4431.508742
4445.562202
4412.883372
4438.621962
4426.186908
4424.389254
4429.612366
4409.487127
4428.134992
4453.190401
4422.686598
4438.853387
4394.216610
4454.231895
4403.657432
4469.159475
4331.834741
4358.187925
4431.930078
4420.271912
4427.009362
4385.247779
4395.093385
4455.293493
4414.676779
4442.615794
4458.043091
4402.115172
4424.891306
4434.897278
4430.975220
4425.770606
4433.726467
4426.333230
4437.554856
4412.709572
4444.029639
4422.091177
4450.102783
4413.113834
4414.618081
4409.354127
4448.499115
4406.769291
4452.515920
4328.524103
4475.512660
4392.477180
4450.157563
4401.687590
4420.947516
4420.309783
4427.554350
4462.551388
4388.753090
4475.730484
4450.442615
4418.160352
4393.402101
4426.378235
4430.131562
4427.902005
4430.697416
4425.444045
4425.625064
4428.382443
4426.588484
4437.487876
4396.484654
4440.395057
4404.700315
4455.418855
4405.357834
4442.541670
4388.929995
4449.125944
4458.606451
4492.441044
4428.051537
4552.312657
4390.281924
4468.612711
4452.312087
4430.430579
4456.008556
4428.443418
4404.293412
4400.962091
4402.439405
4490.883332
4388.123817
4427.303249
4423.811322
4429.161243
4429.365553
4429.508166
4432.988068
4422.614393
4423.155019
4437.475939
4435.559066
4400.153551
4453.374847
4381.588289
4450.354295
4428.754492
4413.929377
4403.860544
4472.381653
4359.439260
4393.025571
4513.386585
4434.921025
4429.789572
4460.852461
4420.976390
4385.278472
4413.384521
4428.666275
4459.393454
4395.036550
4370.075014
4423.074252
4436.894134
4436.589515
4415.392880
4421.517290
4421.175850
4429.679500
4426.216392
4409.764798
4430.967491
4443.131074
4400.839994
4456.483881
4417.172704
4419.913464
4468.433273
4384.948903
4475.867052
4404.297661
4475.189910
4412.943934
4442.668249
4415.759085
4423.928393
4412.121766
4438.504269
4442.033959
4435.591441
4349.465934
4399.267778
4459.363564
4426.765486
4427.353368
4411.384646
4442.601002
4437.570582
4409.995776
4418.745198
4435.759116
4440.987280
4408.594928
4438.138272
4409.107778
4451.098340
4435.378542
4408.284337
4421.968592
4399.905323
4447.637029
4386.979658
4447.550143
4479.573264
4429.199062
4420.515205
4466.367563
4449.769013
4449.636006
4489.875546
4378.339834
4502.769761
4392.175491
4438.173106
4426.901443
4433.758014
4435.879420
4427.834393
4410.579993
4439.294497
4432.750402
4390.446079
4444.102113
4419.746602
4412.737939
4470.395797
4391.431423
4447.314212
4423.747449
4407.472602
4439.404325
4430.740702
4424.052341
4412.675877
4418.677990
4388.600162
4446.830783
4367.198867
4439.077920
4433.474417
4387.046706
4363.985509
4492.147500
4424.119823
4430.027271
4429.469898
4422.336131
4421.333575
4419.519079
4441.191530
4417.913837
4421.208771
4452.007092
4401.785071
4439.589058
4402.313093
4444.382693
4376.000840
4420.320366
4377.713111
4454.277835
4389.161044
4409.570604
4434.276182
4512.914844
4419.067318
4406.969027
4430.450680
4414.585495
4477.120015
4454.224436
4476.866949
4403.338160
4452.660423
4434.823377
4465.640617
4430.707364
4421.259945
4437.696516
4434.778674
4421.774811
4423.347265
4407.696446
4435.023688
4396.228392
4445.010850
4419.799326
4428.312848
4440.869341
4416.234463
4458.791194
4458.124460
4402.248165
4496.138510
4382.738292
4418.643521
4427.259325
4408.052337
4482.259072
4419.309781
4426.139561
4421.765550
4451.153261
4427.307814
4432.381140
4418.772023
4417.128195
4420.760049
4439.154386
4427.718420
4416.963728
4415.187887
4446.244759
4429.743137
4415.693670
4438.850797
4394.301299
4408.741735
4421.431403
4441.391830
4396.393674
4403.119356
4417.827083
4413.584284
4401.039538
4376.645551
4479.104696
4482.349037
4703.021636
4450.836184
4431.527773
4438.551703
4407.629476
4456.229293
4427.997230
4468.632902
4389.736820
4429.526228
4432.260591
4436.394365
4407.405140
4440.379113
4452.379596
4403.115159
4422.505176
4413.796856
4418.634117
4427.928622
4440.110475
4425.014873
4412.706969
4450.632067
4439.881459
4425.377190
4443.280439
4411.409955
4432.977095
4430.687144
4417.308892
4417.649066
4396.106907
4480.454124
4455.701908
4451.452327
4445.322965
4419.310622
4458.202024
4383.092124
4427.250729
4428.719356
4424.684610
4439.557752
4429.293796
4409.133461
4440.450259
4438.968487
4422.488766
4418.874388
4418.997486
4406.941945
4417.517832
4450.241544
4406.621089
4401.955074
4406.523002
4452.144670
4408.666702
4412.981989
4421.557376
4405.802429
4394.645040
4402.267790
4414.596177
4428.286442
4454.458936
4401.835924
4460.013167
4406.485593
4454.319229
4412.711026
4423.592571
4421.159236
4433.305996
4416.904109
4436.183621
4441.497414
4395.399769
4421.658840
4430.522763
4410.245763
4442.926557
4412.079729
4422.911789
4376.695833
4488.375809
4436.677779
4480.177984
4399.706897
4356.107605
4480.187663
4445.021402
4406.168756
4444.626869
4442.425847
4487.266904
4447.045388
4410.417942
4433.119609
4404.683728
4436.233033
4457.089378
4429.976897
4436.328574
4421.509318
4432.577351
4437.618249
4399.758716
4449.693498
4432.764488
4418.007060
4399.680390
4441.908747
4381.897131
4468.469439
4438.239545
4396.700472
4379.700293
4409.563329
4458.519634
4458.694439
4438.126325
4447.816311
4493.947290
4478.790210
4415.735501
4399.491225
4447.056502
4417.996160
4427.592327
4405.301497
4427.059246
4393.128491
4430.037152
4425.390044
4433.609006
4431.869785
4418.627443
4427.615507
4441.632610
4382.207732
4454.302438
4420.667699
4418.018228
4449.174120
4401.075747
4406.091881
4419.522675
4466.281314
4438.272049
4463.787497
4363.158857
4371.652389
4422.075842
4426.356348
4506.363958
4432.719479
4451.592820
4425.688277
4446.009660
4408.749392
4454.462236
4333.403957
4440.304200
4432.514824
4428.375011
4429.210377
4421.632348
4433.098159
4435.129779
4402.137249
4449.536940
4412.539231
4423.687987
4416.612446
4426.325786
4407.636195
4449.886157
4398.095189
4462.627264
4380.742986
4374.011162
4445.480369
4468.918036
4450.078005
4360.665411
4478.902885
4470.785250
4383.016069
4482.844280
4433.433921
4438.572312
4455.730841
4451.902462
4405.853161
4436.577549
4429.720825
4436.874224
4427.960845
4424.766711
4422.762251
4396.088179
4470.838270
4377.813564
4450.756399
4416.701674
4428.491852
4435.865047
4425.887122
4402.761414
4439.381505
4431.072195
4488.957478
4370.342681
4465.654256
4443.924143
4426.219955
4448.149195
4448.233935
4424.880560
4424.702465
4427.635779
4385.623828
4356.024197
4394.748467
4431.075140
4429.400652
4423.821271
4423.744990
4430.577322
4421.188613
4434.082280
4434.213484
4396.086420
4443.507832
4435.148200
4387.189736
4439.863128
4391.950344
4442.550313
4409.146866
4434.489959
4356.302895
4440.724249
4253.318885
4424.346132
4553.957787
4321.193020
4466.382335
4487.192834
4439.499082
4443.723934
4443.767459
4457.508457
4428.950958
4479.620513
4447.488793
4423.625014
4435.632395
4438.927066
4430.327279
4431.587426
4407.994726
4434.361896
4405.909701
4435.990280
4405.547180
4426.626442
4424.572054
4413.483457
4441.385749
4395.214073
4464.582327
4388.345722
4535.678492
4546.886595
4633.563045
4339.968184
4583.879571
4408.163819
4440.623473
4467.599752
4459.805150
4452.611263
4432.224589
4411.257068
4409.851764
4442.965914
4422.985988
4434.454270
4408.846304
4434.496858
4427.216308
4449.535794
4411.064105
4408.094378
4390.509930
4442.451785
4439.414141
4395.210611
4427.532957
4419.458668
4426.417617
4442.289603
4410.771034
4445.965527
4454.304183
4459.992333
4379.280755
4522.385348
4441.058652
4510.548438
4447.431091
4412.673262
4427.763860
4428.368995
4439.464897
4427.481018
4415.945069
4427.463550
4430.956604
4434.603538
4434.337485
4412.396490
4398.930258
4438.223698
4438.174737
4458.665581
4400.441470
4406.376124
4438.020333
4441.280680
4437.598822
4416.969514
4421.193635
4457.012772
4374.998145
4500.121686
4419.688229
4335.991907
4495.462653
4466.462253
4421.935362
4431.185830
4448.995483
4469.659523
4429.319199
4448.576967
4439.146129
4404.499617
4426.203011
4423.019939
4410.670073
4413.750799
4453.591895
4419.531035
4394.384267
4450.405487
4391.502883
4450.363353
4423.533020
4416.485192
4382.691366
4450.186193
4448.422460
4423.332171
4424.199544
4422.390932
4407.404831
4421.730577
4456.351645
4454.153490
4440.880398
4486.829008
4421.900875
4437.712454
4465.610739
4420.464860
4423.440438
4410.360129
4394.413001
4420.772886
4419.663417
4448.225992
4430.460404
4431.619866
4419.500291
4425.327451
4440.497800
4417.014350
4450.302495
4397.742702
4418.683527
4432.956964
4413.834309
4424.901589
4439.992972
4424.950201
4449.066614
4407.551076
4451.757878
4458.659011
4473.781851
4460.686499
4476.222479
4444.910906
4433.774642
4438.055598
4452.335812
4449.871102
4470.248190
4394.633462
4418.028848
4432.287407
4402.121277
4408.929911
4425.397304
4402.542279
4416.534420
4407.409400
4443.080722
4394.556274
4443.673540
4412.759622
4402.697037
4422.654351
4426.475313
4429.878904
4417.159678
4428.011611
4451.833988
4464.915372
4460.914438
4459.635696
4474.239789
4469.365287
4439.060744
4443.844580
4445.011921
4451.369059
4371.048272
4440.371810
4405.107544
4421.651844
4438.790437
4423.568641
4439.054210
4451.026942
4450.427538
4436.362296
4427.554044
4416.374195
4420.222456
4436.180591
4410.244030
4406.371102
4420.937869
4400.527074
4436.528354
4444.583089
4446.227410
4426.490876
4437.534624
4426.121239
4464.588996
4435.819171
4444.929657
4461.986115
4469.272687
4434.634537
4408.098852
4484.127265
4436.513872
4411.923430
4425.258397
4427.115408
4407.666954
4418.368762
4384.768893
4450.804273
4401.644558
4431.381205
4414.417221
4414.379265
4397.844370
4427.577366
4426.749746
4442.191708
4409.952315
4443.207113
4415.685865
4430.079999
4422.913937
4438.982518
4437.132113
4457.170104
4456.723756
4465.885082
4429.986368
4454.617015
4444.063873
4435.490677
4431.108495
4414.856342
4412.175917
4422.957715
4417.164197
4436.757066
4444.336264
4419.142184
4441.399984
4408.398199
4461.958398
4400.839417
4439.624423
4397.797911
4441.222639
4384.271133
4437.939165
4421.882296
4405.507307
4431.028852
4421.182277
4450.237685
4437.773933
4435.185705
4442.981915
4440.863768
4463.826286
4449.611608
4436.797171
4434.292781
4451.382089
4473.686038
4422.817240
4403.782495
4420.117121
4421.146621
4427.318439
4384.442837
4426.974502
4409.633722
4432.540928
4424.216310
4448.405709
4437.618135
4446.670249
4403.238287
4426.411088
4451.170691
4424.261469
4425.515228
4434.954861
4438.002611
4425.660850
4427.793368
4439.551030
4450.800728
4439.403364
4425.071798
4426.102415
4480.061537
4467.368727
4462.693742
4471.016291
4440.422950
4403.906844
4422.088111
4428.736454
4429.012548
4420.057531
4458.489693
4420.106621
4440.645855
4416.017858
4400.215353
4428.805791
4451.078617
4445.753233
4409.796748
4390.865114
4413.907558
4447.818570
4427.221948
4416.541416
4420.505517
4417.016502
4440.826478
4417.833136
4436.591955
4435.391378
4457.270677
4417.810568
4442.359525
4404.155584
4405.625877
4457.336031
4514.289755
4425.331372
4425.753317
4420.292306
4413.476179
4394.995590
4447.830981
4430.138459
4419.045619
4403.832192
4449.544677
4395.608183
4383.301719
4446.448732
4465.241948
4418.616375
4426.847487
4433.686948
4422.636540
4445.998176
4427.245483
4426.057435
4444.215128
4452.789789
4387.038047
4465.923066
4404.217872
4476.309373
4395.213574
4440.111460
4443.557958
4399.391046
4429.828335
4427.709564
4437.312021
4439.355322
4431.925362
4422.060639
4418.030192
4414.628464
4454.441048
4409.130680
4448.368908
4435.132039
4400.006392
4399.565168
4441.504690
4405.853888
4418.487201
4427.994008
4440.853418
4412.620377
4443.874987
4445.821066
4467.630672
4409.734797
4462.433900
4448.956112
4434.103678
4469.224263
4473.500800
4445.961886
4430.852925
4435.039879
4425.327025
4432.623036
4407.764480
4422.669373
4410.863005
4423.173901
4439.335872
4419.139548
4417.331017
4431.389364
4399.281844
4448.765232
4437.160208
4412.132792
4438.670598
4424.414321
4423.014717
4444.279358
4446.474060
4411.443856
4389.852170
4421.492205
4458.986731
4458.080858
4429.007033
4445.248576
4462.094343
4444.547804
4460.113195
4460.718944
4433.754055
4424.103005
4441.205406
4437.385897
4440.902130
4446.559595
4434.973657
4409.071797
4424.756360
4432.143263
4437.479731
4425.699052
4402.543448
4418.075114
4412.959962
4430.018293
4441.935067
4424.190283
4422.968639
4402.972198
4439.657803
4435.222903
4435.444272
4423.615176
4431.469004
4451.834766
4459.470429
4453.507059
4432.152952
4466.786457
4465.138446
4428.242776
4436.452269
4426.824018
4414.497985
4415.046018
4393.407189
4436.710884
4434.445746
4432.480002
4441.769318
4410.087966
4441.194440
4439.319117
4431.039274
4449.919227
4418.375142
4431.280289
4425.805601
4437.485911
4410.517512
4446.115127
4420.271154
4445.396848
4434.501567
4427.501112
4424.157464
4451.165732
4455.913189
4478.299928
4433.739448
4462.422628
4431.491040
4429.594034
4425.947938
4425.719732
4446.232290
4419.525299
4433.178591
4406.754401
4417.851941
4457.188321
4394.907622
4439.322427
4420.448273
4408.241369
4406.129046
4431.909686
4415.735988
4433.284649
4428.902004
4427.084494
4425.170636
4450.895769
4428.707806
4427.699526
4454.677855
4454.798238
4440.792557
4458.430778
4444.264456
4454.085585
4457.231446
4434.584828
4430.966582
4426.392097
4446.674987
4404.693140
4437.096098
4429.037909
4453.646787
4404.668784
4397.798773
4433.359885
4404.561309
4445.708664
4429.291563
4433.998532
4417.356374
4444.227526
4412.852818
4424.326930
4426.269952
4438.561144
4432.444798
4431.984069
4432.344370
4440.704171
4443.441592
4453.745729
4455.783346
4464.962586
4469.703615
4457.636406
4437.187576
4427.634309
4417.906761
4415.788146
4435.990713
4437.744738
4419.317177
4429.791251
4430.175332
4455.043975
4435.194138
4437.630698
4431.038591
4451.345095
4428.093007
4426.468158
4454.267494
4427.229908