# vtk DataFile Version 2.0
mfree iwf
ASCII

DATASET UNSTRUCTURED_GRID
POINTS 6231 float
0.000000 0.000300 0.000000
0.000000 0.000310 0.000000
0.000000 0.000320 0.000000
0.000000 0.000330 0.000000
0.000000 0.000340 0.000000
0.000000 0.000350 0.000000
0.000000 0.000360 0.000000
0.000001 0.000370 0.000000
0.000001 0.000380 0.000000
0.000001 0.000390 0.000000
0.000001 0.000400 0.000000
0.000001 0.000410 0.000000
0.000001 0.000420 0.000000
0.000001 0.000430 0.000000
0.000001 0.000440 0.000000
0.000001 0.000450 0.000000
0.000001 0.000460 0.000000
0.000002 0.000470 0.000000
0.000002 0.000480 0.000000
0.000001 0.000492 0.000000
0.000006 0.000501 0.000000
0.000984 0.001066 0.000000
0.001057 0.001102 0.000000
0.001001 0.001073 0.000000
0.001070 0.001106 0.000000
0.001092 0.001111 0.000000
0.001141 0.001115 0.000000
0.001149 0.001113 0.000000
0.001161 0.001108 0.000000
0.001174 0.001105 0.000000
0.001204 0.001105 0.000000
0.000010 0.000300 0.000000
0.000010 0.000310 0.000000
0.000010 0.000320 0.000000
0.000010 0.000330 0.000000
0.000010 0.000340 0.000000
0.000010 0.000350 0.000000
0.000010 0.000360 0.000000
0.000011 0.000370 0.000000
0.000011 0.000380 0.000000
0.000011 0.000390 0.000000
0.000011 0.000400 0.000000
0.000011 0.000410 0.000000
0.000011 0.000420 0.000000
0.000011 0.000430 0.000000
0.000011 0.000440 0.000000
0.000011 0.000450 0.000000
0.000011 0.000460 0.000000
0.000011 0.000472 0.000000
0.000013 0.000478 0.000000
0.000009 0.000492 0.000000
0.000013 0.000498 0.000000
0.001111 0.001108 0.000000
0.001126 0.001108 0.000000
0.001134 0.001109 0.000000
0.001140 0.001107 0.000000
0.001156 0.001100 0.000000
0.001167 0.001098 0.000000
0.001182 0.001094 0.000000
0.001192 0.001096 0.000000
0.001198 0.001093 0.000000
0.001201 0.001101 0.000000
0.000020 0.000300 0.000000
0.000020 0.000310 0.000000
0.000020 0.000320 0.000000
0.000020 0.000330 0.000000
0.000021 0.000340 0.000000
0.000020 0.000350 0.000000
0.000021 0.000360 0.000000
0.000020 0.000370 0.000000
0.000020 0.000380 0.000000
0.000021 0.000390 0.000000
0.000020 0.000400 0.000000
0.000022 0.000410 0.000000
0.000020 0.000420 0.000000
0.000022 0.000430 0.000000
0.000020 0.000440 0.000000
0.000023 0.000451 0.000000
0.000020 0.000460 0.000000
0.000022 0.000470 0.000000
0.000021 0.000482 0.000000
0.000024 0.000494 0.000000
0.000020 0.000497 0.000000
0.001078 0.001097 0.000000
0.001107 0.001103 0.000000
0.001117 0.001104 0.000000
0.001122 0.001102 0.000000
0.001131 0.001095 0.000000
0.001147 0.001098 0.000000
0.001173 0.001091 0.000000
0.001188 0.001091 0.000000
0.001195 0.001082 0.000000
0.001202 0.001079 0.000000
0.000030 0.000300 0.000000
0.000030 0.000310 0.000000
0.000029 0.000320 0.000000
0.000031 0.000330 0.000000
0.000030 0.000340 0.000000
0.000031 0.000350 0.000000
0.000030 0.000360 0.000000
0.000031 0.000371 0.000000
0.000031 0.000380 0.000000
0.000031 0.000390 0.000000
0.000031 0.000400 0.000000
0.000031 0.000410 0.000000
0.000031 0.000420 0.000000
0.000031 0.000430 0.000000
0.000031 0.000440 0.000000
0.000030 0.000450 0.000000
0.000031 0.000459 0.000000
0.000036 0.000473 0.000000
0.000029 0.000478 0.000000
0.000032 0.000488 0.000000
0.000032 0.000497 0.000000
0.000063 0.000500 0.000000
0.001099 0.001098 0.000000
0.001116 0.001089 0.000000
0.001142 0.001088 0.000000
0.001150 0.001081 0.000000
0.001158 0.001093 0.000000
0.001160 0.001086 0.000000
0.001172 0.001083 0.000000
0.001179 0.001081 0.000000
0.001201 0.001071 0.000000
0.000040 0.000300 0.000000
0.000040 0.000310 0.000000
0.000040 0.000320 0.000000
0.000040 0.000330 0.000000
0.000040 0.000340 0.000000
0.000041 0.000350 0.000000
0.000040 0.000359 0.000000
0.000040 0.000369 0.000000
0.000041 0.000380 0.000000
0.000040 0.000390 0.000000
0.000042 0.000399 0.000000
0.000041 0.000410 0.000000
0.000042 0.000420 0.000000
0.000040 0.000430 0.000000
0.000042 0.000439 0.000000
0.000043 0.000450 0.000000
0.000042 0.000460 0.000000
0.000037 0.000469 0.000000
0.000045 0.000477 0.000000
0.000043 0.000496 0.000000
0.000040 0.000498 0.000000
0.000882 0.000925 0.000000
0.001106 0.001090 0.000000
0.001124 0.001088 0.000000
0.001131 0.001082 0.000000
0.001141 0.001090 0.000000
0.001162 0.001077 0.000000
0.001182 0.001071 0.000000
0.001180 0.001061 0.000000
0.001191 0.001074 0.000000
0.001198 0.001062 0.000000
0.000050 0.000300 0.000000
0.000050 0.000310 0.000000
0.000050 0.000320 0.000000
0.000049 0.000330 0.000000
0.000051 0.000340 0.000000
0.000050 0.000349 0.000000
0.000051 0.000361 0.000000
0.000050 0.000371 0.000000
0.000052 0.000380 0.000000
0.000050 0.000390 0.000000
0.000052 0.000400 0.000000
0.000049 0.000410 0.000000
0.000053 0.000419 0.000000
0.000050 0.000430 0.000000
0.000053 0.000440 0.000000
0.000048 0.000451 0.000000
0.000054 0.000458 0.000000
0.000052 0.000469 0.000000
0.000055 0.000483 0.000000
0.000048 0.000488 0.000000
0.000050 0.000498 0.000000
0.001097 0.001105 0.000000
0.001052 0.001093 0.000000
0.001118 0.001081 0.000000
0.001132 0.001068 0.000000
0.001149 0.001072 0.000000
0.001164 0.001069 0.000000
0.001154 0.001064 0.000000
0.001173 0.001069 0.000000
0.001188 0.001062 0.000000
0.001194 0.001051 0.000000
0.000060 0.000300 0.000000
0.000060 0.000310 0.000000
0.000060 0.000321 0.000000
0.000060 0.000330 0.000000
0.000061 0.000340 0.000000
0.000059 0.000350 0.000000
0.000061 0.000359 0.000000
0.000060 0.000368 0.000000
0.000061 0.000380 0.000000
0.000059 0.000391 0.000000
0.000062 0.000399 0.000000
0.000060 0.000409 0.000000
0.000063 0.000419 0.000000
0.000058 0.000430 0.000000
0.000065 0.000440 0.000000
0.000060 0.000449 0.000000
0.000065 0.000460 0.000000
0.000055 0.000471 0.000000
0.000064 0.000475 0.000000
0.000068 0.000486 0.000000
0.000058 0.000496 0.000000
0.001086 0.001104 0.000000
0.001097 0.001089 0.000000
0.001113 0.001072 0.000000
0.001129 0.001074 0.000000
0.001143 0.001062 0.000000
0.001145 0.001054 0.000000
0.001174 0.001052 0.000000
0.001165 0.001060 0.000000
0.001184 0.001051 0.000000
0.001191 0.001043 0.000000
0.000070 0.000300 0.000000
0.000070 0.000310 0.000000
0.000070 0.000319 0.000000
0.000070 0.000329 0.000000
0.000071 0.000340 0.000000
0.000070 0.000350 0.000000
0.000071 0.000359 0.000000
0.000068 0.000373 0.000000
0.000081 0.000376 0.000000
0.000070 0.000389 0.000000
0.000072 0.000400 0.000000
0.000068 0.000411 0.000000
0.000074 0.000421 0.000000
0.000068 0.000429 0.000000
0.000075 0.000438 0.000000
0.000067 0.000451 0.000000
0.000077 0.000458 0.000000
0.000073 0.000470 0.000000
0.000076 0.000486 0.000000
0.000068 0.000495 0.000000
0.000076 0.000496 0.000000
0.000874 0.000904 0.000000
0.001086 0.001092 0.000000
0.001106 0.001080 0.000000
0.001125 0.001051 0.000000
0.001141 0.001073 0.000000
0.001156 0.001054 0.000000
0.001166 0.001051 0.000000
0.001159 0.001043 0.000000
0.001180 0.001041 0.000000
0.001188 0.001033 0.000000
0.000080 0.000300 0.000000
0.000080 0.000310 0.000000
0.000080 0.000321 0.000000
0.000080 0.000331 0.000000
0.000081 0.000340 0.000000
0.000080 0.000350 0.000000
0.000082 0.000362 0.000000
0.000075 0.000369 0.000000
0.000074 0.000383 0.000000
0.000080 0.000392 0.000000
0.000089 0.000397 0.000000
0.000079 0.000410 0.000000
0.000086 0.000417 0.000000
0.000079 0.000431 0.000000
0.000086 0.000445 0.000000
0.000077 0.000448 0.000000
0.000086 0.000464 0.000000
0.000074 0.000470 0.000000
0.000087 0.000473 0.000000
0.000085 0.000482 0.000000
0.000083 0.000495 0.000000
0.001076 0.001103 0.000000
0.001047 0.001098 0.000000
0.001109 0.001060 0.000000
0.001119 0.001066 0.000000
0.001133 0.001057 0.000000
0.001139 0.001046 0.000000
0.001149 0.001044 0.000000
0.001169 0.001039 0.000000
0.001176 0.001033 0.000000
0.001184 0.001024 0.000000
0.000090 0.000300 0.000000
0.000090 0.000310 0.000000
0.000090 0.000319 0.000000
0.000090 0.000329 0.000000
0.000091 0.000341 0.000000
0.000089 0.000349 0.000000
0.000092 0.000361 0.000000
0.000088 0.000369 0.000000
0.000092 0.000379 0.000000
0.000089 0.000387 0.000000
0.000084 0.000404 0.000000
0.000093 0.000410 0.000000
0.000086 0.000425 0.000000
0.000096 0.000426 0.000000
0.000090 0.000435 0.000000
0.000098 0.000456 0.000000
0.000087 0.000453 0.000000
0.000099 0.000472 0.000000
0.000105 0.000480 0.000000
0.000089 0.000495 0.000000
0.000094 0.000495 0.000000
0.000891 0.000941 0.000000
0.001080 0.001085 0.000000
0.001069 0.001092 0.000000
0.001099 0.001079 0.000000
0.001117 0.001047 0.000000
0.001143 0.001036 0.000000
0.001157 0.001034 0.000000
0.001163 0.001029 0.000000
0.001172 0.001023 0.000000
0.001179 0.001015 0.000000
0.000100 0.000300 0.000000
0.000100 0.000310 0.000000
0.000101 0.000321 0.000000
0.000099 0.000331 0.000000
0.000102 0.000339 0.000000
0.000099 0.000350 0.000000
0.000102 0.000360 0.000000
0.000100 0.000371 0.000000
0.000101 0.000381 0.000000
0.000100 0.000391 0.000000
0.000101 0.000400 0.000000
0.000102 0.000406 0.000000
0.000101 0.000418 0.000000
0.000100 0.000436 0.000000
0.000110 0.000443 0.000000
0.000095 0.000445 0.000000
0.000107 0.000461 0.000000
0.000095 0.000465 0.000000
0.000094 0.000481 0.000000
0.000106 0.000491 0.000000
0.000101 0.000494 0.000000
0.001006 0.001077 0.000000
0.001016 0.001082 0.000000
0.001041 0.001095 0.000000
0.001122 0.001058 0.000000
0.001132 0.001043 0.000000
0.001133 0.001032 0.000000
0.001153 0.001026 0.000000
0.001145 0.001023 0.000000
0.001167 0.001018 0.000000
0.001174 0.001007 0.000000
0.000110 0.000300 0.000000
0.000110 0.000310 0.000000
0.000110 0.000319 0.000000
0.000110 0.000329 0.000000
0.000110 0.000342 0.000000
0.000111 0.000351 0.000000
0.000109 0.000360 0.000000
0.000113 0.000370 0.000000
0.000110 0.000378 0.000000
0.000110 0.000389 0.000000
0.000112 0.000400 0.000000
0.000110 0.000414 0.000000
0.000116 0.000423 0.000000
0.000106 0.000427 0.000000
0.000112 0.000432 0.000000
0.000106 0.000449 0.000000
0.000115 0.000461 0.000000
0.000110 0.000470 0.000000
0.000116 0.000480 0.000000
0.000111 0.000493 0.000000
0.000119 0.000492 0.000000
0.000953 0.001033 0.000000
0.000900 0.000961 0.000000
0.001074 0.001080 0.000000
0.001094 0.001068 0.000000
0.001083 0.001065 0.000000
[...]
POINT_DATA 6231
SCALARS density float 1
LOOKUP_TABLE default
4416.382926
4427.098435
4423.586748
4424.824943
4424.881447
4423.177314
4424.811077
4426.248585
4428.382902
4429.367352
4428.795024
4432.275188
4427.564221
4431.448811
4432.646697
4439.290433
4423.239656
4432.097784
4414.011327
4424.141476
4410.975508
4422.077860
4424.463083
4431.586191
4437.836706
4420.323497
4397.326936
4428.399637
4448.365350
4450.267606
4416.969685
4417.456912
4423.621203
4426.912776
4428.607188
4426.566080
4429.324648
4428.770887
4429.397271
4428.600980
4432.167774
4425.105357
4429.103182
4423.077016
4436.390680
4417.237709
4429.353277
4410.298865
4442.464648
4461.867463
4460.080459
4416.212028
4407.702943
4417.250461
4436.683607
4511.649444
4394.728831
4406.286394
4423.434655
4400.003687
4450.647927
4438.436665
4420.706595
4433.368232
4427.311286
4422.813635
4427.719989
4428.675535
4423.312627
4432.022371
4419.097165
4430.124603
4426.105401
4438.440770
4425.600746
4439.633604
4410.798131
4475.667354
4400.595146
4455.031571
4350.676402
4451.074374
4421.636992
4426.767573
4438.555274
4416.162433
4502.588223
4323.318497
4362.309550
4412.905194
4427.102619
4424.893311
4403.383372
4430.100708
4429.088237
4422.685334
4435.922163
4434.280556
4431.017057
4426.777436
4436.985350
4428.127530
4440.129008
4414.721788
4432.732269
4408.890029
4448.052524
4408.362070
4431.385890
4389.604509
4449.126234
4377.903142
4548.887249
4373.199918
4433.077076
4471.286830
4439.747911
4472.738601
4349.832105
4483.413945
4452.808634
4416.784548
4476.462539
4432.107250
4432.139110
4426.204457
4436.706847
4437.225977
4419.352752
4438.062442
4432.371809
4430.502855
4416.688239
4433.577561
4410.954538
4454.208507
4416.460937
4441.284380
4413.494837
4444.127365
4392.447457
4509.253074
4311.327622
4418.903098
4384.833240
4429.004497
4393.597850
4432.381643
4437.272641
4499.324994
4435.053614
4402.278370
4488.345453
4444.666544
4416.655531
4428.939650
4431.642638
4428.521260
4425.963941
4441.817332
4436.918223
4415.617011
4445.250302
4427.732153
4438.870370
4427.022564
4429.639158
4402.969409
4450.011116
4376.144893
4485.241890
4355.972248
4473.942712
4363.203852
4538.499253
4381.068777
4438.172039
4429.195840
4460.187506
4445.544466
4449.500484
4440.758198
4403.415971
4410.883497
4414.852430
4420.756388
4429.163625
4440.911044
4421.885479
4439.984979
4426.796957
4432.514308
4431.255798
4430.317103
4407.889632
4430.323857
4431.446494
4440.262830
4425.357664
4441.687354
4410.425037
4461.069216
4408.867333
4515.841169
4374.676476
4478.271823
4431.795913
4414.269628
4394.153941
4405.123455
4424.601165
4451.568591
4425.440340
4420.308521
4405.535508
4412.901611
4433.881505
4431.686227
4427.294737
4424.300943
4436.354522
4412.382631
4437.537718
4423.875073
4416.424714
4395.436228
4453.163285
4381.493943
4435.051040
4406.514091
4436.121840
4441.963487
4462.457504
4434.268661
4449.920355
4451.766669
4412.911024
4386.331793
4434.825384
4460.089288
4435.907033
4413.876073
4390.664075
4426.350773
4452.277874
4438.184643
4438.351740
4414.781626
4429.298894
4426.039145
4435.723403
4406.537740
4431.182592
4431.595862
4420.848404
4453.161156
4438.274404
4436.861146
4419.113630
4438.168239
4426.755247
4434.475082
4453.794670
4393.495694
4458.743436
4449.128013
4354.602160
4470.364974
4409.831523
4429.050540
4415.252670
4435.883645
4431.296592
4392.947083
4449.661499
4434.857995
4403.274390
4437.141386
4437.480907
4430.997300
4425.373372
4434.179112
4415.157613
4436.538745
4426.102544
4429.326958
4446.300835
4444.360534
4427.164542
4446.723274
4396.157853
4428.815158
4452.400910
4413.882669
4365.021796
4431.369339
4403.883909
4437.906927
4424.192993
4413.985302
4426.293955
4418.126569
4436.675680
4485.304872
4395.621352
4384.369113
4435.441637
4441.452219
4430.688632
4412.609384
4431.438705
4427.846537
4422.829121
4446.465967
4425.771898
4414.151037
4448.521983
4397.396594
4450.626601
4413.970767
4441.129219
4449.829247
4422.273776
4393.429356
4452.054183
4464.008654
4422.580946
4485.477830
4422.830884
4432.461681
4419.019109
4426.501065
4434.043454
4426.811273
4454.506034
4464.924248
4381.106688
4408.523295
4470.483883
4452.516458
4424.135055
4423.469282
4437.155695
4440.069574
4410.891734
4434.939354
4423.363476
4434.496215
4435.810478
4425.520478
4426.745555
4410.598568
4432.951359
4403.677673
4459.522453
4414.403446
4439.140065
4470.011846
4426.451480
4453.239299
4399.728848
4410.120038
4437.712241
4437.777688
4412.270846
4382.017226
4400.653583
4453.236263
4458.686261
4407.345892
4424.057633
4453.162874
4431.260495
4428.240742
4423.110733
4436.177143
4439.581442
4420.203106
4409.778201
4447.427487
4392.784510
4453.822280
4435.737308
4414.812923
4466.403608
4450.344111
4404.888410
4388.650591
4437.286257
4377.828353
4431.955936
4441.080917
4388.255452
4440.628572
4413.988590
4427.936635
4454.451159
4439.540441
4419.045389
4346.871727
4459.769601
4387.792110
4418.335587
4437.904442
4436.152117
4425.980020
4438.212213
4406.734319
4453.492688
4435.169728
4414.084859
4447.989333
4411.507086
4413.828237
4392.703045
4425.061081
4425.540137
4413.129713
4454.407914
4410.796962
4460.100878
4490.026307
4419.928177
4439.031400
4435.585562
4419.428906
4423.332507
4418.810274
4435.999030
4462.408326
4462.469258
4465.521281
4497.082055
4454.073722
4432.849908
4436.505941
4424.896785
4430.835218
4438.333786
4420.243579
4418.637312
4420.482779
4434.501171
4397.838747
4452.728081
4423.621741
4454.985286
4409.893571
4444.011683
4361.820466
4423.344070
4491.439104
4574.403411
4386.799229
4379.648160
4426.027570
4420.083399
4447.562329
4453.991074
4402.880164
4441.666574
4426.238470
4405.292370
4404.644703
4448.066175
4428.058957
4430.958698
4439.641985
4418.045486
4431.435436
4404.770797
4438.861190
4444.767388
4420.368014
4413.438495
4450.374777
4399.817717
4454.690213
4403.405904
4453.694377
4435.759968
4519.695100
4342.592787
4323.233111
4460.533297
4393.096487
4415.880479
4429.921179
4435.018280
4481.228658
4445.328823
4441.291763
4433.596433
4400.340227
4423.940331
4412.872745
4432.959776
4424.415982
4435.204024
4415.805273
4443.479051
4437.116484
4412.325688
4387.926582
4441.811167
4445.730152
4433.772698
4430.007980
4439.841244
4421.368606
4429.393775
4418.939208
4409.841545
4484.383171
4473.537642
4420.960650
4405.830496
4428.575248
4449.141914
4403.020612
4370.895666
4461.256235
4462.034677
4420.339527
4406.207500
4432.301139
4429.535887
4438.614122
4418.357514
4439.766048
4437.231811
4426.345219
4409.704479
4433.831906
4450.728325
4424.143405
4400.508346
4444.959889
4410.365952
4412.027362
4452.952954
4402.287609
4433.829661
4402.171539
4469.870579
4379.154822
4395.426985
4419.409657
4420.935615
4438.469287
4439.448827
4399.841906
4467.175932
4443.928001
4398.847547
4466.661881
4430.263805
4439.487489
4429.500615
4425.686363
4435.982641
4417.504155
4438.722326
4437.044521
4418.083362
4389.192602
4448.947571
4442.974664
4428.257537
4457.453962
4444.539529
4418.476538
4429.603913
4441.089096
4385.373113
4434.074517
4424.953866
4436.414799
4386.399974
4423.409050
4434.315001
4437.470419
4444.234618
4412.833648
4476.902109
4480.881181
4413.341654
4419.200463
4420.821271
4425.866324
4427.056887
4430.729771
4413.445294
4442.088145
4404.894915
4451.471198
4450.581822
4425.570173
4397.871356
4419.249969
4409.543359
4439.438277
4433.025951
4410.375376
4445.631747
4376.375667
4470.062911
4423.262043
4554.422388
4376.784901
4465.201863
4419.402210
4435.774724
4446.976811
4379.452097
4463.897193
4387.602107
4413.641519
4410.164354
4420.724734
4432.508053
4430.393664
4429.172079
4434.330090
4419.707859
4449.630555
4411.415219
4401.121613
4411.978693
4431.193852
4457.335543
4443.092742
4414.696826
4433.215308
4441.879125
4438.160057
4471.008934
4483.276192
4391.248060
4384.811627
4434.430786
4415.652524
4429.011528
4461.247087
4436.249470
4408.521425
4432.794849
4452.129862
4456.426960
4422.965733
4411.625156
4432.242082
4428.194595
4423.918105
4437.075706
4415.647476
4444.603983
4411.187490
4435.991050
4437.396915
4396.413503
4424.413636
4417.021345
4456.880080
4437.439126
4390.863874
4466.380252
4426.394941
4408.077795
4392.381655
4460.183933
4416.032877
4448.754793
4419.608901
4428.938482
4428.244342
4390.511139
4372.438121
4449.053218
4357.186330
4429.409322
4443.617523
4425.165735
4438.576688
4430.679922
4433.132914
4430.493641
4403.187695
4437.836084
4414.981431
4404.085086
4455.030738
4404.689748
4435.527303
4460.776814
4411.481288
4387.744222
4453.503085
4416.705850
4411.251291
4444.699179
4451.083512
4428.417020
4424.307162
4421.551308
4461.804954
4411.603366
4435.156715
4478.596095
4343.141565
4486.366392
4386.241307
4419.457071
4432.176850
4430.121891
4424.455946
4420.055581
4437.668752
4440.391036
4424.872602
4423.625331
4401.305291
4443.226575
4408.703971
4440.997004
4402.927450
4426.115631
4424.029542
4430.559617
4408.574862
4454.783098
4402.814292
4429.707775
4424.294266
4414.043239
4444.090745
4418.021124
4445.317197
4467.007436
4422.035714
4396.051654
4447.908936
4438.603650
4444.708778
4428.279393
4424.499183
4437.568170
4443.713016
4407.250453
4433.408526
4400.516123
4449.593134
4435.592934
4415.859989
4445.227717
4425.363544
4439.705391
4447.286494
4387.914997
4459.011304
4404.161905
4453.029729
4434.707381
4469.644116
4416.127833
4421.635596
4454.031846
4421.099126
4433.595693
4453.897910
4427.302359
4462.974097
4426.047848
4421.399707
4434.308587
4433.582468
4442.809311
4412.055902
4437.145976
4426.928442
4435.768519
4440.815492
4413.641600
4423.070871
4426.843059
4448.255306
4455.186082
4440.821051
4420.384235
4443.404646
4448.489735
4391.646839
4452.506504
4366.314869
4428.531737
4429.912408
4414.761083
4454.755885
4433.485737
4437.562864
4389.754579
4446.917739
4423.671730
4444.035756
4409.876578
4420.671330
4423.796901
4440.396943
4412.093047
4439.300667
4427.879032
4418.363500
4419.673051
4444.610799
4424.697762
4448.149538
4387.529346
4467.579380
4389.915437
4402.468281
4394.398015
4445.423555
4428.717652
4462.069250
4420.943177
4435.006818
4427.395523
4432.956504
4423.871647
4389.308397
4417.559105
4439.465690
4419.044943
4409.583166
4474.280321
4410.235430
4443.614524
4422.079387
4433.016980
4438.159377
4431.229589
4415.595101
4459.069540
4414.250743
4432.655391
4402.200927
4445.398227
4413.595871
4410.168288
4416.895509
4445.170624
4430.286224
4462.845277
4401.400656
4466.325546
4415.944128
4441.210585
4413.125767
4424.656071
4431.550943
4428.783969
4411.391249
4423.900918
4415.237973
4449.505005
4414.714898
4400.453713
4433.467521
4435.665481
4429.838167
4413.258297
4442.427858
4423.854538
4428.548398
4416.966328
4443.425178
4416.598026
4422.262291
4429.074865
4448.816935
4435.837718
4439.783810
4393.562758
4450.125125
4392.185439
4456.987308
4422.149295
4432.167649
4409.137500
4430.879594
4416.776453
4431.439242
4474.716821
4398.950592
4413.014821
4440.999117
4411.702435
4437.670892
4407.266394
4428.514423
4428.778678
4432.554510
4441.245738
4425.842465
4424.568866
4435.205267
4418.898664
4435.085333
4439.155577
4411.506114
4439.118936
4418.600742
4427.597166
4417.002947
4439.428963
4407.040754
4376.317301
4393.728133
4463.657966
4432.633067
4413.133067
4420.207541
4409.769089
4451.678789
4435.621214
4404.467490
4466.568462
4423.367813
4423.666596
4447.160948
4431.584850
4428.703419
4432.468313
4404.585933
4444.407723
4425.188982
4431.153223
4439.752936
4405.180206
4435.974888
4448.236352
4414.215763
4437.627315
4453.858626
4418.283229
4406.016385
4418.243689
4483.811465
4455.461158
4435.996777
4439.868504
4438.839449
4440.310458
4420.314555
4423.592652
4420.383134
4438.394142
4422.794244
4433.881706
4416.629976
4433.527666
4432.252409
4428.640776
4435.032263
4442.152450
4433.422302
4425.350394
4418.337671
4443.300783
4439.798397
4424.565196
4416.366935
4436.794262
4443.650045
4404.236261
4437.130654
4457.416976
4390.382657
4447.780755
4392.510951
4392.709934
4427.639534
4435.607098
4428.437869
4390.839969
4466.990334
4395.553580
4429.339322
4412.737561
4464.882299
4353.331573
4416.276477
4430.800434
4434.338609
4420.929966
4427.922367
4410.992169
4456.927749
4440.583913
4405.935239
4409.373056
4440.895389
4440.879688
4414.623188
4418.138052
4456.344108
4439.488615
4428.188650
4397.057998
4393.951264
4463.782399
4456.375285
4442.070228
4404.192447
4401.499923
4425.178350
4442.018305
4444.003311
4375.581443
4463.922576
4430.446735
4462.925244
4418.140979
4431.641603
4439.600745
4426.452654
4435.541038
4444.331008
4408.249602
4406.784982
4452.172893
4433.453654
4420.199989
4415.865237
4452.173523
4430.435263
4420.346847
4399.273547
4433.593082
4467.427366
4453.310940
4328.813489
4470.902951
4462.213198
4434.072771
4478.488911
4425.943141
4442.346689
4461.076117
4438.400868
4408.689851
4407.629987
4403.100802
4438.276551
4432.239431
4430.754249
4418.926956
4417.462602
4424.160027
4449.111786
4428.086178
4413.380243
4403.658769
4456.650680
4407.815814
4429.320998
4415.180275
4447.415719
4405.913806
4449.538025
4372.513650
4449.524162
4320.265532
4497.066520
4437.672361
4418.679821
4425.366234
4485.722947
4420.615275
4445.748462
4398.580420
4474.030178
4363.592356
4433.536308
4449.601591
4428.402172
4429.972301
4434.519056
4442.058997
4414.616495
4420.437756
4428.334100
4451.627197
4437.537074
4399.085032
4427.434753
4436.197619
4403.940910
4459.629464
4384.030375
4468.272011
4385.479062
4477.787476
4465.981535
4504.431364
4417.958110
4414.636952
4380.826963
4437.731112
4403.541783
4432.052616
4456.351431
4449.986137
4449.542106
4352.407980
4454.082582
4425.778531
4437.883459
4414.096356
4425.769487
4416.672607
4424.123764
4433.212439
4398.030554
4418.946734
4447.927689
4425.371873
4446.069601
4418.684184
4413.917154
4462.005095
4425.249170
4438.025539
4433.691928
4431.839596
4507.201952
4443.425698
4428.376787
4441.078805
4416.569493
4392.528361
4450.407202
4406.672044
4437.523587
4442.119220
4442.691066
4412.240891
4425.645183
4431.347597
4429.907039
4436.821591
4436.495531
4449.923913
4446.619223
4438.781959
4407.041826
4408.365557
4449.849197
4450.357529
4405.023817
4398.491482
4413.100393
4401.250456
4449.849573
4399.490941
4396.073234
4426.707301
4392.708874
4417.335420
4422.067293
4434.845429
4401.877099
4451.065269
4373.116231
4393.210939
4481.970152
4473.307679
4409.532645
4427.625388
4429.550738
4419.741957
4422.772765
4421.799162
4415.243603
4391.328639
4433.972128
4422.662304
4416.906481
4461.994151
4419.260118
4433.165328
4441.886246
4436.575045
4466.000777
4385.562880
4443.880859
4436.465666
4449.252379
4430.081475
4451.236708
4420.846192
4440.707484
4445.866310
4478.644440
4465.377224
4441.278915
4380.316850
4417.009409
4400.073835
4430.505730
4427.336269
4439.565657
4429.185288
4402.319637
4423.124582
4450.436451
4455.022961
4431.810106
4424.096784
4447.756644
4413.163693
4419.584744
4420.311654
4424.377944
4433.396661
4442.077564
4418.100639
4446.861164
4434.343331
4429.209374
4420.908226
4431.378621
4416.365755
4428.243878
4454.578020
4413.848372
4484.950026
4387.403384
4449.300072
4427.330622
4427.431653
4433.408147
4412.714266
4446.413522
4436.588767
4414.664905
4425.252542
4432.548520
4436.876081
4430.440809
4408.050935
4465.047765
4418.510772
4424.584691
4416.732243
4440.604824
4409.895197
4409.565737
4421.248298
4446.117994
4433.964791
4413.968137
4468.805562
4439.711899
4443.609078
4433.015026
4447.142514
4443.458835
4348.821147
4392.054859
4405.211365
4416.393264
4432.418662
4430.961772
4403.349958
4439.631659
4415.696661
4407.313020
4424.621695
4427.732448
4400.435581
4405.543914
4440.180431
4413.354175
4404.559324
4430.891199
4414.502103
4464.100256
4389.644165
4426.671728
4436.984442
4424.547248
4424.057011
4428.747230
4385.665723
4440.389088
4466.279882
4441.338396
4358.052700
4455.486311
4470.612253
4416.120447
4426.507949
4428.563131
4427.311423
4457.183941
4410.030694
4444.729006
4439.698880
4440.992627
4450.939472
4393.171728
4396.962439
4449.450233
4458.598808
4434.628453
4420.373251
4442.716354
4405.722478
4423.519924
4377.010065
4426.968457
4434.149244
4431.450808
4415.176012
4450.036461
4424.700067
4409.160784
4409.497521
4380.626169
4455.451577
4408.091230
4435.491754
4433.855402
4430.007952
4414.559126
4438.089079
4410.215266
4417.729616
4415.991171
4452.655151
4445.974009
4414.204274
4393.823830
4441.485175
4424.025561
4417.454195
4400.231874
4444.978599
4400.195887
4449.654609
4464.693659
4442.931092
4438.283999
4426.561792
4438.473136
4431.123561
4470.281741
4420.252796
4459.638593
4449.847448
4472.224348
4433.419010
4403.766706
4419.957644
4440.363542
4430.729387
4416.764635
4433.333415
4447.638606
4410.907546
4438.517911
4425.059828
4431.336906
4452.154628
4438.183190
4402.764730
4409.020563
4458.233376
4404.970598
4439.180572
4416.935923
4377.613750
4473.250569
4453.112581
4436.236575
4407.298397
4419.689497
4393.248238
4456.699690
4407.188529
4409.370720
4339.322467
4405.722593
4402.290497
4435.226854
4422.270063
4429.377123
4436.823032
4411.155336
4432.922742
4425.909534
4436.835380
4421.214989
4417.934646
4427.259676
4437.866394
4422.747674
4443.469219
4466.517495
4403.799526
4386.027906
4473.077304
4396.876435
4439.727333
4415.897344
4398.248729
4438.575903
4416.195379
4428.265874
4452.291202
4450.456543
4394.035282
4410.649011
4463.942888
4441.883842
4429.667283
4426.014014
4426.394350
4439.667474
4429.274353
4426.427130
4451.541880
4420.124604
4436.961253
4435.210557
4427.086616
4434.399689
4419.801924
4436.994949
4445.298172
4412.673523
4437.617998
4468.389823
4420.711275
4333.426869
4409.068026
4427.396069
4422.122739
4429.723828
4435.982011
4473.142346
4402.608751
4441.103914
4465.726180
4381.119519
4366.939899
4422.513718
4436.196855
4430.303213
4403.999466
4439.108725
4425.317203
4418.340093
4412.694263
4427.627776
4424.145322
4419.183832
4440.461560
4439.738701
4406.056542
4455.399533
4387.735016
4422.271621
4453.250234
4380.228045
4534.595945
4389.498759
4429.646312
4411.459910
4441.158442
4440.355475
4456.354693
4440.075188
4415.685646
4483.173804
4448.395649
4427.538761
4434.049201
4427.515527
4425.468146
4436.152813
4424.176438
4435.655587
4431.710590
4438.749030
4430.790635
4422.132379
4398.758199
4432.799172
4400.558428
4445.239898
4434.448988
4462.395753
4447.640734
4419.638719
4417.975416
4430.929377
4487.743476
4436.523643
4466.476955
4431.580478
4449.206011
4457.315691
4457.013043
4443.344142
4469.578975
4432.251750
4482.271703
4433.519828
4427.919923
4427.823740
4435.686949
4408.570296
4441.867814
4412.315681
4454.651245
4420.270682
4437.918382
4430.750455
4419.526015
4424.600504
4440.091549
4387.950075
4451.581750
4391.436831
4419.020092
4424.878789
4446.253983
4469.066299
4433.489701
4464.111854
4478.200548
4454.239149
4429.552367
4390.863392
4396.395534
4363.274665
4341.755400
4391.165867
4427.114805
4437.162484
4421.862486
4421.190084
4437.618599
4444.454047
4427.489683
4424.267895
4428.504028
4450.708437
4418.519887
4463.764809
4433.059822
4438.609063
4451.023087
4404.284460
4384.459855
4451.451288
4412.375620
4423.402804
4445.077270
4421.898107
4423.071971
4429.315659
4470.072447
4431.155457
4348.079803
4441.286768
4484.955393
4394.851095
4447.804805
4429.799707
4424.196117
4424.125412
4435.027859
4424.298987
4410.637489
4411.960864
4415.317000
4469.609248
4412.789908
4421.973051
4431.854215
4423.664571
4427.825253
4411.753129
4447.155515
4439.419697
4451.433276
4386.678211
4415.016605
4424.727348
4431.650777
4382.713000
4449.545575
4383.511518
4398.760023
4448.045535
4464.423064
4475.148553
4389.693169
4424.378424
4429.041196
4426.015590
4422.947002
4435.456573
4450.763217
4448.964928
4416.098859
4428.613325
4397.521724
4430.271264
4405.488993
4434.962818
4437.049547
4429.977180
4448.955873
4410.971282
4426.826967
4458.896937
4476.228200
4380.292693
4420.499300
4425.511845
4433.548529
4416.795008
4391.168095
4434.344898
4435.415202
4448.739935
4461.688823
4418.827436
4400.474606
4418.410139
4445.246222
4419.863796
4414.861675
4436.786245
4415.923670
4420.199928
4449.114941
4404.048720
4428.876029
4428.595510
4428.162154
4403.500787
4443.537233
4417.814220
4404.935236
4447.167284
4453.398194