# vtk DataFile Version 2.0
mfree iwf
ASCII

DATASET UNSTRUCTURED_GRID
POINTS 6231 float
0.000000 0.000300 0.000000
0.000000 0.000310 0.000000
0.000000 0.000320 0.000000
0.000000 0.000330 0.000000
0.000000 0.000340 0.000000
0.000001 0.000350 0.000000
0.000001 0.000360 0.000000
0.000001 0.000370 0.000000
0.000001 0.000380 0.000000
0.000001 0.000390 0.000000
0.000001 0.000400 0.000000
0.000001 0.000410 0.000000
0.000001 0.000420 0.000000
0.000001 0.000430 0.000000
0.000002 0.000440 0.000000
0.000002 0.000451 0.000000
0.000002 0.000460 0.000000
0.000002 0.000471 0.000000
0.000002 0.000480 0.000000
0.000002 0.000492 0.000000
0.000006 0.000501 0.000000
0.000320 0.000664 0.000000
0.000342 0.000741 0.000000
0.000324 0.000681 0.000000
0.000348 0.000755 0.000000
0.000360 0.000774 0.000000
0.000392 0.000811 0.000000
0.000398 0.000815 0.000000
0.000410 0.000820 0.000000
0.000422 0.000827 0.000000
0.000452 0.000848 0.000000
0.000010 0.000300 0.000000
0.000010 0.000310 0.000000
0.000010 0.000320 0.000000
0.000010 0.000330 0.000000
0.000010 0.000340 0.000000
0.000010 0.000350 0.000000
0.000011 0.000360 0.000000
0.000011 0.000370 0.000000
0.000011 0.000380 0.000000
0.000011 0.000390 0.000000
0.000011 0.000400 0.000000
0.000011 0.000410 0.000000
0.000011 0.000420 0.000000
0.000012 0.000430 0.000000
0.000012 0.000440 0.000000
0.000012 0.000451 0.000000
0.000012 0.000460 0.000000
0.000012 0.000472 0.000000
0.000013 0.000478 0.000000
0.000010 0.000492 0.000000
0.000013 0.000498 0.000000
0.000375 0.000785 0.000000
0.000384 0.000794 0.000000
0.000390 0.000801 0.000000
0.000397 0.000804 0.000000
0.000413 0.000812 0.000000
0.000422 0.000818 0.000000
0.000434 0.000825 0.000000
0.000443 0.000833 0.000000
0.000447 0.000837 0.000000
0.000449 0.000844 0.000000
0.000020 0.000300 0.000000
0.000020 0.000310 0.000000
0.000020 0.000320 0.000000
0.000020 0.000330 0.000000
0.000020 0.000340 0.000000
0.000021 0.000351 0.000000
0.000020 0.000360 0.000000
0.000021 0.000371 0.000000
0.000020 0.000380 0.000000
0.000022 0.000390 0.000000
0.000021 0.000400 0.000000
0.000022 0.000410 0.000000
0.000020 0.000420 0.000000
0.000023 0.000431 0.000000
0.000020 0.000440 0.000000
0.000024 0.000451 0.000000
0.000021 0.000460 0.000000
0.000022 0.000470 0.000000
0.000021 0.000481 0.000000
0.000024 0.000494 0.000000
0.000020 0.000497 0.000000
0.000360 0.000755 0.000000
0.000374 0.000777 0.000000
0.000381 0.000787 0.000000
0.000389 0.000789 0.000000
0.000401 0.000792 0.000000
0.000408 0.000804 0.000000
0.000431 0.000817 0.000000
0.000441 0.000826 0.000000
0.000454 0.000828 0.000000
0.000461 0.000831 0.000000
0.000030 0.000300 0.000000
0.000030 0.000310 0.000000
0.000030 0.000320 0.000000
0.000031 0.000331 0.000000
0.000030 0.000340 0.000000
0.000031 0.000349 0.000000
0.000030 0.000360 0.000000
0.000031 0.000370 0.000000
0.000030 0.000380 0.000000
0.000032 0.000391 0.000000
0.000030 0.000400 0.000000
0.000032 0.000411 0.000000
0.000031 0.000420 0.000000
0.000032 0.000430 0.000000
0.000031 0.000440 0.000000
0.000031 0.000450 0.000000
0.000032 0.000459 0.000000
0.000037 0.000473 0.000000
0.000030 0.000478 0.000000
0.000033 0.000488 0.000000
0.000032 0.000497 0.000000
0.000063 0.000500 0.000000
0.000376 0.000772 0.000000
0.000390 0.000777 0.000000
0.000412 0.000796 0.000000
0.000422 0.000797 0.000000
0.000420 0.000807 0.000000
0.000430 0.000805 0.000000
0.000438 0.000812 0.000000
0.000447 0.000818 0.000000
0.000466 0.000824 0.000000
0.000040 0.000300 0.000000
0.000040 0.000310 0.000000
0.000040 0.000321 0.000000
0.000040 0.000329 0.000000
0.000040 0.000340 0.000000
0.000040 0.000351 0.000000
0.000041 0.000360 0.000000
0.000041 0.000370 0.000000
0.000041 0.000380 0.000000
0.000040 0.000390 0.000000
0.000042 0.000399 0.000000
0.000041 0.000410 0.000000
0.000042 0.000420 0.000000
0.000040 0.000430 0.000000
0.000043 0.000439 0.000000
0.000043 0.000450 0.000000
0.000043 0.000460 0.000000
0.000037 0.000470 0.000000
0.000045 0.000478 0.000000
0.000043 0.000496 0.000000
0.000040 0.000498 0.000000
0.000319 0.000549 0.000000
0.000389 0.000769 0.000000
0.000400 0.000781 0.000000
0.000408 0.000780 0.000000
0.000410 0.000790 0.000000
0.000431 0.000794 0.000000
0.000449 0.000807 0.000000
0.000457 0.000807 0.000000
0.000458 0.000817 0.000000
0.000470 0.000816 0.000000
0.000050 0.000300 0.000000
0.000050 0.000310 0.000000
0.000050 0.000319 0.000000
0.000049 0.000331 0.000000
0.000052 0.000340 0.000000
0.000049 0.000349 0.000000
0.000052 0.000360 0.000000
0.000049 0.000371 0.000000
0.000053 0.000380 0.000000
0.000050 0.000390 0.000000
0.000053 0.000400 0.000000
0.000049 0.000410 0.000000
0.000054 0.000420 0.000000
0.000050 0.000430 0.000000
0.000054 0.000440 0.000000
0.000047 0.000451 0.000000
0.000055 0.000459 0.000000
0.000053 0.000470 0.000000
0.000056 0.000483 0.000000
0.000049 0.000488 0.000000
0.000050 0.000498 0.000000
0.000366 0.000771 0.000000
0.000343 0.000732 0.000000
0.000400 0.000771 0.000000
0.000419 0.000781 0.000000
0.000426 0.000786 0.000000
0.000440 0.000802 0.000000
0.000440 0.000789 0.000000
0.000447 0.000795 0.000000
0.000464 0.000804 0.000000
0.000474 0.000806 0.000000
0.000060 0.000300 0.000000
0.000060 0.000310 0.000000
0.000061 0.000321 0.000000
0.000060 0.000329 0.000000
0.000061 0.000339 0.000000
0.000059 0.000351 0.000000
0.000063 0.000361 0.000000
0.000059 0.000369 0.000000
0.000064 0.000381 0.000000
0.000058 0.000390 0.000000
0.000064 0.000399 0.000000
0.000059 0.000410 0.000000
0.000065 0.000419 0.000000
0.000058 0.000430 0.000000
0.000066 0.000440 0.000000
0.000060 0.000449 0.000000
0.000066 0.000460 0.000000
0.000055 0.000471 0.000000
0.000065 0.000475 0.000000
0.000068 0.000486 0.000000
0.000059 0.000496 0.000000
0.000361 0.000765 0.000000
0.000379 0.000764 0.000000
0.000403 0.000764 0.000000
0.000412 0.000771 0.000000
0.000424 0.000774 0.000000
0.000438 0.000781 0.000000
0.000459 0.000788 0.000000
0.000455 0.000795 0.000000
0.000468 0.000796 0.000000
0.000478 0.000798 0.000000
0.000070 0.000300 0.000000
0.000070 0.000310 0.000000
0.000070 0.000319 0.000000
0.000070 0.000330 0.000000
0.000072 0.000342 0.000000
0.000068 0.000349 0.000000
0.000074 0.000357 0.000000
0.000067 0.000372 0.000000
0.000073 0.000378 0.000000
0.000069 0.000390 0.000000
0.000074 0.000401 0.000000
0.000068 0.000411 0.000000
0.000075 0.000422 0.000000
0.000067 0.000429 0.000000
0.000075 0.000438 0.000000
0.000066 0.000452 0.000000
0.000077 0.000459 0.000000
0.000073 0.000470 0.000000
0.000076 0.000486 0.000000
0.000068 0.000496 0.000000
0.000076 0.000496 0.000000
0.000319 0.000535 0.000000
0.000372 0.000755 0.000000
0.000392 0.000760 0.000000
0.000421 0.000762 0.000000
0.000431 0.000774 0.000000
0.000443 0.000773 0.000000
0.000450 0.000782 0.000000
0.000458 0.000779 0.000000
0.000472 0.000787 0.000000
0.000482 0.000788 0.000000
0.000080 0.000300 0.000000
0.000080 0.000310 0.000000
0.000080 0.000321 0.000000
0.000081 0.000330 0.000000
0.000079 0.000339 0.000000
0.000081 0.000350 0.000000
0.000078 0.000363 0.000000
0.000082 0.000368 0.000000
0.000082 0.000382 0.000000
0.000079 0.000391 0.000000
0.000084 0.000398 0.000000
0.000078 0.000409 0.000000
0.000084 0.000417 0.000000
0.000079 0.000431 0.000000
0.000087 0.000446 0.000000
0.000077 0.000447 0.000000
0.000086 0.000463 0.000000
0.000074 0.000470 0.000000
0.000087 0.000473 0.000000
0.000086 0.000482 0.000000
0.000084 0.000495 0.000000
0.000354 0.000756 0.000000
0.000337 0.000732 0.000000
0.000405 0.000755 0.000000
0.000415 0.000759 0.000000
0.000432 0.000764 0.000000
0.000444 0.000763 0.000000
0.000452 0.000768 0.000000
0.000467 0.000777 0.000000
0.000476 0.000778 0.000000
0.000486 0.000779 0.000000
0.000090 0.000300 0.000000
0.000090 0.000310 0.000000
0.000090 0.000320 0.000000
0.000090 0.000330 0.000000
0.000090 0.000341 0.000000
0.000092 0.000351 0.000000
0.000090 0.000359 0.000000
0.000092 0.000370 0.000000
0.000089 0.000380 0.000000
0.000092 0.000389 0.000000
0.000091 0.000403 0.000000
0.000091 0.000411 0.000000
0.000089 0.000424 0.000000
0.000096 0.000427 0.000000
0.000088 0.000435 0.000000
0.000097 0.000455 0.000000
0.000087 0.000453 0.000000
0.000097 0.000471 0.000000
0.000106 0.000480 0.000000
0.000089 0.000495 0.000000
0.000095 0.000495 0.000000
0.000319 0.000567 0.000000
0.000369 0.000750 0.000000
0.000358 0.000744 0.000000
0.000386 0.000756 0.000000
0.000428 0.000754 0.000000
0.000442 0.000758 0.000000
0.000460 0.000766 0.000000
0.000468 0.000765 0.000000
0.000479 0.000769 0.000000
0.000489 0.000770 0.000000
0.000100 0.000300 0.000000
0.000100 0.000310 0.000000
0.000100 0.000320 0.000000
0.000100 0.000331 0.000000
0.000101 0.000340 0.000000
0.000100 0.000349 0.000000
0.000101 0.000360 0.000000
0.000101 0.000372 0.000000
0.000100 0.000379 0.000000
0.000102 0.000391 0.000000
0.000099 0.000399 0.000000
0.000103 0.000408 0.000000
0.000101 0.000417 0.000000
0.000100 0.000436 0.000000
0.000109 0.000443 0.000000
0.000097 0.000445 0.000000
0.000107 0.000460 0.000000
0.000098 0.000467 0.000000
0.000095 0.000481 0.000000
0.000106 0.000491 0.000000
0.000101 0.000494 0.000000
0.000325 0.000687 0.000000
0.000327 0.000695 0.000000
0.000336 0.000726 0.000000
0.000420 0.000749 0.000000
0.000435 0.000749 0.000000
0.000449 0.000751 0.000000
0.000460 0.000756 0.000000
0.000466 0.000752 0.000000
0.000480 0.000762 0.000000
0.000492 0.000761 0.000000
0.000110 0.000300 0.000000
0.000110 0.000310 0.000000
0.000110 0.000321 0.000000
0.000110 0.000329 0.000000
0.000110 0.000340 0.000000
0.000111 0.000351 0.000000
0.000111 0.000360 0.000000
0.000110 0.000369 0.000000
0.000111 0.000379 0.000000
0.000110 0.000390 0.000000
0.000112 0.000400 0.000000
0.000111 0.000413 0.000000
0.000115 0.000423 0.000000
0.000106 0.000426 0.000000
0.000112 0.000434 0.000000
0.000107 0.000450 0.000000
0.000115 0.000461 0.000000
0.000111 0.000471 0.000000
0.000116 0.000480 0.000000
0.000111 0.000493 0.000000
0.000119 0.000492 0.000000
0.000320 0.000617 0.000000
0.000320 0.000589 0.000000
0.000367 0.000740 0.000000
0.000394 0.000749 0.000000
0.000389 0.000741 0.000000
[...]
POINT_DATA 6231
SCALARS density float 1
LOOKUP_TABLE default
4401.909523
4423.244951
4420.009232
4423.433599
4425.595627
4425.861835
4426.232057
4425.994305
4427.856130
4428.909180
4426.684212
4429.531523
4428.892806
4430.355355
4430.229713
4440.053016
4422.729170
4432.300798
4412.935907
4423.471265
4411.366586
4447.143520
4420.869148
4427.649478
4438.371892
4422.695709
4406.990482
4445.298509
4436.957941
4448.769649
4418.182879
4404.606023
4419.804657
4424.232581
4424.145900
4421.217256
4426.665126
4424.969586
4420.395728
4427.958816
4430.971261
4426.927274
4432.497955
4425.942508
4436.072443
4415.944646
4429.108250
4409.934349
4442.576313
4460.762435
4460.400304
4415.795419
4401.993106
4381.672160
4410.401350
4487.191359
4407.265626
4409.589133
4421.440045
4412.492173
4431.787706
4459.796142
4413.655802
4434.064917
4420.381792
4424.577788
4426.038850
4422.704553
4428.932729
4438.800108
4425.583276
4423.331694
4428.394799
4432.195943
4416.294800
4441.255030
4416.157575
4473.994915
4399.805159
4454.510116
4352.245614
4449.882321
4420.202198
4421.161852
4420.871364
4409.716077
4551.927201
4357.329222
4367.218066
4448.062078
4405.043368
4434.557217
4404.812358
4422.819257
4422.103340
4415.535752
4429.715054
4430.917417
4434.245768
4421.684972
4420.683539
4416.488884
4446.431180
4412.470162
4437.391970
4421.489267
4444.411492
4403.749618
4430.688900
4391.186544
4457.219670
4369.798516
4555.874879
4370.492528
4431.689619
4465.946450
4449.976200
4478.651320
4383.783317
4479.039502
4429.421787
4417.530519
4504.908373
4450.730026
4428.410816
4425.159331
4441.559721
4439.745984
4412.559288
4431.022600
4423.483921
4441.236564
4421.068985
4436.927196
4402.091437
4451.558016
4398.884743
4443.257130
4414.652698
4450.361501
4387.859476
4506.732809
4311.309085
4419.869155
4384.229973
4564.693926
4407.623114
4364.796657
4466.369509
4468.632762
4432.337106
4390.454763
4435.879342
4378.125474
4416.218422
4434.951667
4421.425768
4417.980111
4414.356960
4442.914584
4442.728785
4402.980531
4441.154062
4402.002978
4439.843660
4424.913867
4443.105147
4398.357551
4463.802819
4359.780290
4478.839888
4356.093772
4478.193860
4363.270002
4534.624463
4383.486188
4439.467686
4425.519980
4482.215291
4401.006894
4418.377168
4438.209743
4440.108871
4412.318612
4456.152297
4415.034951
4423.190993
4428.874573
4439.784349
4442.724284
4416.697352
4428.189947
4429.600708
4446.222886
4427.460582
4444.345101
4407.571238
4437.541783
4430.456179
4444.600869
4421.476524
4474.272543
4405.959313
4518.002193
4370.579805
4482.145567
4431.601811
4419.086075
4382.022337
4405.501671
4417.611231
4434.554694
4435.048837
4443.032145
4426.831742
4411.263721
4448.801563
4421.209882
4431.799427
4420.972618
4412.552275
4437.067309
4429.822038
4431.598423
4418.424355
4419.850053
4424.690671
4431.504024
4427.877230
4419.267766
4422.991250
4447.956621
4458.478560
4439.366791
4461.425062
4447.943689
4412.029567
4386.903436
4638.272276
4453.945168
4433.873380
4452.579298
4434.088606
4408.869408
4419.159329
4452.842455
4402.392768
4419.389435
4425.612489
4434.272857
4410.757205
4443.074275
4436.470176
4415.016871
4422.051855
4422.941531
4441.448621
4433.150308
4402.872292
4418.270377
4425.476109
4443.116389
4468.029764
4390.171495
4454.783071
4451.480394
4355.533724
4468.075596
4411.475688
4429.097541
4423.525654
4422.731637
4434.605600
4414.111015
4447.303647
4425.245600
4446.245963
4440.142490
4433.601450
4426.414528
4434.529800
4431.403607
4426.868853
4398.715024
4449.969089
4427.986144
4422.182185
4440.868073
4405.199654
4445.612963
4417.697834
4418.549899
4457.826545
4406.937107
4378.486771
4441.931092
4439.574639
4427.572765
4426.437705
4415.995579
4602.853878
4438.893813
4429.245156
4474.100940
4428.492364
4447.396482
4456.793614
4391.401452
4415.410417
4422.714187
4429.951219
4426.960524
4420.556224
4432.574933
4441.732536
4436.151330
4408.695433
4438.572365
4425.447070
4421.798376
4449.282129
4414.754324
4420.215303
4400.546298
4441.175465
4446.467532
4417.057166
4469.998027
4413.872188
4437.473596
4419.400698
4428.325424
4431.903696
4422.428538
4411.193155
4411.544204
4431.017074
4420.811481
4484.420087
4460.044792
4406.196364
4431.284648
4431.578511
4438.971113
4428.844783
4412.797744
4410.595946
4450.549715
4439.352318
4413.334851
4442.565060
4405.845823
4451.528549
4395.507984
4456.223293
4407.202410
4446.463734
4465.194465
4384.573296
4467.770288
4398.326944
4412.149968
4486.934761
4488.567375
4422.942168
4392.858909
4431.075792
4444.250138
4447.202353
4429.211167
4414.584236
4444.827864
4437.648717
4420.760099
4425.901636
4419.068104
4442.334992
4442.335096
4408.364113
4412.970163
4440.938424
4438.288333
4413.514546
4437.123879
4427.332508
4446.794107
4432.576141
4373.485243
4429.752996
4394.834299
4416.445380
4439.339958
4393.460041
4437.519285
4405.991256
4420.545525
4439.339533
4412.846215
4419.422410
4390.437842
4409.168902
4409.025385
4411.836076
4431.134195
4427.966870
4438.019939
4432.257912
4414.376641
4416.714972
4431.700184
4445.971191
4424.886176
4395.911167
4445.121692
4421.626676
4431.527319
4424.672827
4402.635108
4434.362583
4418.358730
4449.442030
4499.177438
4421.123225
4423.362540
4498.785839
4424.392133
4419.178082
4428.612282
4432.754472
4451.471331
4421.588076
4473.186050
4473.640513
4419.855604
4430.861834
4436.704195
4433.157184
4412.006253
4424.705815
4444.522684
4424.170865
4406.581456
4430.528123
4435.645049
4441.610836
4394.070898
4442.269686
4403.700314
4448.007946
4389.103313
4419.193498
4499.366055
4570.926737
4386.732171
4372.754638
4406.951886
4407.523568
4447.889959
4459.649838
4401.905356
4483.451094
4436.690601
4389.135639
4417.445474
4436.913357
4426.901909
4433.058109
4416.150593
4444.574868
4442.010130
4396.481311
4425.629948
4444.022603
4429.062887
4398.785977
4429.546598
4424.161447
4447.200495
4386.509101
4459.448002
4403.311092
4485.089050
4349.775481
4329.880338
4505.411630
4396.130160
4421.480522
4433.403825
4423.714299
4467.693367
4451.641842
4416.002646
4404.896021
4430.057152
4429.648982
4410.519685
4423.865823
4441.476013
4433.818464
4412.743092
4420.227391
4443.367482
4442.311909
4396.967881
4422.884769
4441.915691
4432.802587
4393.701543
4434.039414
4421.135516
4432.438216
4416.874807
4418.797514
4494.456312
4488.447255
4423.739602
4404.750041
4393.174443
4444.630542
4443.016352
4383.936951
4433.671610
4445.348158
4426.778432
4423.249985
4439.663004
4421.182281
4434.039274
4427.674310
4418.244990
4444.352722
4434.710615
4416.010969
4416.116116
4443.514107
4440.750845
4398.235534
4424.107766
4446.877360
4426.737946
4437.411092
4394.653016
4450.276341
4403.414414
4470.331273
4332.952240
4355.931984
4432.678557
4401.175311
4415.232421
4416.868288
4389.313449
4455.084943
4435.730049
4445.382652
4449.356506
4420.314215
4422.153051
4431.286559
4428.742848
4430.912187
4442.477069
4410.713802
4439.484783
4431.233847
4419.935222
4409.327101
4458.627050
4417.042335
4414.654714
4409.840211
4443.151357
4405.572688
4450.339891
4326.538148
4478.245258
4388.693184
4452.327817
4399.226116
4422.409220
4454.500803
4444.099699
4478.285132
4381.241575
4455.667220
4460.839481
4432.553813
4436.248737
4420.971604
4429.020077
4427.439764
4427.873071
4414.780476
4429.091564
4449.499731
4401.936778
4437.944076
4419.817316
4432.899377
4395.106825
4453.929544
4406.049316
4443.068256
4396.588739
4448.013529
4458.301215
4487.528771
4425.648922
4560.180855
4386.768434
4476.759422
4484.318341
4422.364390
4442.009292
4400.243750
4415.340310
4402.835114
4426.384050
4434.795872
4390.632960
4424.427889
4425.587096
4425.937419
4437.056204
4431.199284
4413.333951
4427.412573
4450.782876
4400.364951
4429.323076
4420.101370
4450.019078
4379.313660
4448.712787
4421.511490
4412.745145
4402.544412
4469.683778
4363.995737
4392.254406
4536.261867
4480.242473
4431.200319
4457.165841
4419.572843
4381.805174
4431.236365
4445.019537
4451.828234
4394.135589
4386.555816
4418.444384
4442.526195
4429.798882
4418.527929
4414.080941
4430.280531
4442.102222
4400.837094
4421.592810
4449.384837
4423.463778
4400.589777
4454.419029
4415.287531
4421.307309
4474.742058
4389.244185
4475.454809
4400.045018
4477.721080
4414.601626
4445.034163
4383.270395
4400.107908
4414.613833
4441.659626
4446.109264
4428.603041
4385.025694
4435.972408
4455.366940
4429.921636
4429.241360
4408.101540
4443.981510
4435.663590
4410.196690
4405.961467
4433.930327
4451.183333
4382.226965
4443.308367
4420.504788
4442.135925
4435.185516
4406.586458
4423.081121
4403.599535
4441.401217
4389.382237
4446.360019
4499.126370
4429.701453
4452.543607
4480.709245
4451.625501
4416.636631
4469.903208
4372.081317
4491.359828
4387.530472
4420.809395
4424.432047
4427.654086
4435.188110
4436.917561
4405.206026
4440.775065
4432.614205
4404.542831
4423.219380
4435.743703
4428.474894
4428.764575
4390.640341
4438.177695
4433.674654
4415.664514
4441.281662
4419.355087
4420.881096
4419.473126
4414.142695
4423.823642
4442.866062
4389.610870
4440.203832
4440.356215
4408.546027
4396.009927
4492.072624
4444.978608
4431.657259
4424.377368
4426.709097
4424.791987
4410.065283
4436.454860
4431.706187
4412.188529
4444.890936
4408.369973
4434.557019
4391.853922
4439.018120
4438.659905
4415.717163
4408.101563
4453.540083
4404.116430
4422.890560
4455.714721
4508.848129
4424.520995
4455.590048
4437.802125
4435.888014
4477.012965
4440.796139
4457.558131
4409.887132
4419.834706
4429.715239
4455.920448
4426.225399
4425.338141
4423.578046
4439.901757
4435.817867
4414.217612
4409.290732
4444.805402
4407.629792
4422.012129
4428.619002
4405.671260
4389.134229
4436.271137
4425.882176
4461.477930
4400.734643
4454.112718
4366.288767
4416.229160
4428.745052
4401.047960
4470.079952
4439.950298
4420.584923
4441.967256
4444.945727
4453.429853
4451.027901
4410.944146
4408.718984
4420.935436
4442.876520
4426.326048
4422.082384
4399.730959
4448.763516
4444.200709
4401.233245
4423.223473
4425.136745
4410.468104
4435.397208
4426.639086
4426.282601
4378.080487
4446.804442
4409.598605
4475.196742
4385.640360
4448.365232
4417.196504
4601.966562
4411.485785
4454.778074
4457.547469
4438.336624
4435.222588
4418.475732
4451.746230
4383.999729
4431.399254
4432.428224
4433.251185
4407.248808
4439.953296
4449.076393
4412.205176
4406.019366
4439.082182
4428.019791
4414.314003
4419.195674
4410.312733
4407.214253
4427.261503
4408.447431
4453.917033
4392.154946
4458.329968
4399.252986
4450.359771
4423.599208
4404.865491
4466.572247
4455.001149
4422.071158
4448.620169
4437.273380
4422.274937
4457.057663
4385.537566
4422.866580
4428.315574
4418.956406
4444.812607
4434.024173
4405.056041
4433.395974
4434.677708
4429.653532
4399.359407
4426.288979
4423.548487
4417.341051
4425.941999
4433.796206
4387.140745
4421.407228
4397.753355
4420.939123
4414.469649
4436.704056
4401.683882
4410.416756
4458.975581
4452.404306
4468.268938
4454.177047
4429.369526
4461.881103
4421.995496
4448.288694
4414.804600
4422.123866
4422.531958
4430.603350
4410.267442
4439.215464
4449.032215
4404.554926
4407.730751
4437.199997
4432.880133
4405.834044
4419.720977
4416.032716
4399.170263
4456.643894
4447.021152
4438.616918
4405.465353
4376.855037
4462.002136
4492.500639
4399.397080
4498.630294
4483.824673
4467.381392
4460.028492
4463.198424
4463.557419
4419.667804
4438.289771
4444.413712
4424.580173
4435.993553
4418.726885
4437.378354
4441.458354
4385.339391
4443.896614
4442.866365
4407.182538
4400.284698
4434.373033
4410.177163
4432.444638
4425.289864
4400.359020
4394.557873
4404.980558
4472.676736
4523.108676
4405.301729
4434.357612
4448.398598
4467.962316
4466.093964
4462.526023
4418.619552
4464.296090
4420.222897
4405.306403
4438.017940
4399.203896
4424.243212
4429.222945
4431.117091
4425.317747
4412.231505
4443.018979
4445.380256
4383.351081
4438.311822
4432.225088
4424.397228
4408.194737
4409.716628
4417.880144
4425.797915
4460.942511
4432.491899
4465.048631
4385.563856
4455.389472
4427.296855
4452.660823
4492.337237
4467.440730
4438.146507
4439.741153
4462.940218
4429.180822
4502.208335
4349.726027
4442.225897
4433.397692
4426.090132
4425.763387
4426.044259
4434.054245
4432.773617
4394.663754
4441.181992
4442.375724
4401.043323
4418.430868
4418.039426
4423.979061
4420.107627
4384.848332
4409.289871
4401.871071
4418.327317
4411.127393
4478.709213
4409.054895
4447.706610
4459.382618
4458.261612
4441.780912
4470.642987
4454.711936
4402.232053
4455.401788
4442.110951
4406.582253
4434.715700
4420.971770
4442.966683
4424.914713
4426.557139
4402.124978
4435.706294
4446.833063
4383.527359
4440.529379
4447.147752
4416.081744
4414.638119
4403.029846
4430.957219
4424.106512
4450.410988
4431.174556
4414.487898
4420.476139
4445.555453
4427.096954
4440.638076
4456.621832
4452.827214
4459.435180
4428.737612
4371.182834
4362.501427
4364.389910
4418.916163
4429.548016
4430.626829
4432.377756
4412.831967
4440.055864
4440.963056
4412.049888
4389.387306
4441.702194
4447.088680
4381.976609
4437.328226
4417.795279
4411.353026
4427.999619
4405.862726
4414.839987
4397.071847
4419.072550
4460.894910
4476.265510
4437.951464
4474.388785
4455.892786
4462.859707
4453.068561
4451.378722
4442.760461
4440.629525
4517.327607
4450.530033
4432.546710
4433.866989
4422.474337
4444.565158
4421.462325
4407.714743
4437.749602
4434.565154
4421.842921
4391.725575
4445.015552
4443.847611
4402.294307
4426.412464
4407.793158
4433.189017
4431.249393
4444.638104
4442.540196
4431.985991
4437.193449
4427.146926
4455.141060
4424.880772
4459.588970
4455.879823
4479.239447
4449.863837
4377.339841
4485.647082
4426.885716
4426.973556
4428.777639
4428.654633
4438.694488
4403.997881
4440.753625
4425.557463
4396.328366
4415.923374
4429.415914
4435.085033
4386.487657
4447.695880
4431.851218
4408.101471
4423.595940
4412.934684
4411.039440
4410.326049
4438.825411
4437.305105
4415.037356
4450.177906
4446.386177
4433.156621
4440.344444
4458.831407
4445.606005
4438.887954
4433.542950
4416.155583
4427.575125
4418.387535
4442.515757
4421.221382
4430.916467
4425.248588
4412.901427
4433.784316
4447.903238
4424.000264
4397.073746
4457.356224
4415.184813
4419.545010
4431.036612
4418.066842
4426.864923
4414.068176
4428.503372
4432.817666
4408.388905
4456.511522
4432.660537
4459.899966
4411.168367
4435.240687
4444.044174
4468.629503
4429.731466
4447.657326
4434.970985
4430.863073
4421.077350
4423.340595
4412.010591
4457.931867
4404.002058
4442.009226
4435.490741
4391.794639
4435.595704
4423.417080
4410.331268
4403.935209
4439.537522
4438.722535
4423.693584
4412.507704
4417.969552
4425.474774
4426.671196
4434.190358
4432.985223
4463.095477
4454.149526
4449.630608
4458.509086
4425.543824
4433.721719
4458.751655
4460.800314
4448.923706
4422.090476
4423.618310
4441.983073
4426.880590
4415.892795
4419.883480
4437.186312
4418.829383
4445.908966
4448.268260
4405.349760
4438.909067
4422.192337
4417.522918
4412.745879
4428.506454
4419.781336
4415.512684
4436.624602
4404.943427
4434.197899
4417.119385
4454.287342
4438.435576
4457.105778
4450.473261
4440.517109
4411.221901
4456.960318
4455.055296
4448.220003
4423.204776
4432.165962
4412.035418
4419.359122
4438.611886
4422.329137
4413.121214
4423.635607
4417.353728
4394.878329
4430.446004
4397.082802
4409.660008
4411.572893
4424.932253
4404.160662
4443.165342
4428.353763
4450.498126
4433.830534
4435.785156
4408.006767
4438.425269
4448.807035
4427.867156
4439.618343
4445.855959
4436.136987
4454.984258
4433.173670
4453.078632
4423.620473
4428.811821
4427.903799
4437.273260
4436.410697
4441.183098
4426.042320
4445.205476
4411.662728
4441.864365
4455.975949
4396.526475
4443.095786
4444.212359
4420.993474
4428.574084
4432.557581
4392.341982
4448.148694
4411.624949
4426.311824
4444.300591
4433.689650
4439.800367
4453.400033
4435.504258
4443.617381
4449.319188
4442.468929
4466.167539
4454.415504
4425.190265
4429.210542
4415.908688
4420.623016
4388.195536
4446.152822
4434.154531
4407.639812
4421.780226
4410.323885
4386.645689
4436.539871
4438.412951
4421.644886
4409.968538
4403.403462
4432.629056
4414.507372
4444.779887
4460.578880
4448.848728
4376.722055
4446.947145
4412.121586
4435.429662
4438.622758
4447.596041
4442.386467
4455.557466
4447.296024
4458.586413
4421.364974
4423.531936
4430.631917
4433.794586
4428.775679
4437.885733
4418.480317
4466.039912
4403.026372
4447.442127
4429.421217
4441.466896
4391.619102
4438.496756
4424.108682
4441.508233
4410.908768
4425.752442
4439.372063
4390.599731
4429.902206
4446.386805
4471.310479
4451.828579
4449.304332
4409.932188
4458.247448
4469.813030
4422.487891
4435.642098
4463.066840
4423.767295
4427.822045
4432.900978
4400.927274
4416.315522
4416.308270
4436.556652
4425.381656
4433.443819
4422.119422
4424.375422
4398.876113
4438.110838
4443.039777
4423.657093
4425.936992
4432.642590
4438.399489
4451.897320
4397.292720
4437.522805
4433.822889
4422.628525
4386.310804
4455.950139
4422.654416
4437.460267
4491.323220
4426.112897
4447.268916
4465.701460
4433.190299
4429.311765
4418.236602
4431.710504
4452.900726
4441.420151
4446.432760
4419.539890
4421.517495
4433.783438
4459.018922
4445.923723
4413.330457
4399.347950
4409.866911
4471.446501
4427.726094
4441.469991
4413.040121
4428.846934
4439.137600
4440.825766
4457.915979
4468.141834
4396.934238
4455.391654
4464.695858
4444.432661
4465.917640
4452.291041
4465.377632
4424.152936
4427.488697
4430.115372
4419.909316
4399.202441
4449.714175
4421.226454
4417.387991
4431.394051
4434.235952
4394.779165
4390.440056
4457.769271
4453.618434
4409.781598
4436.448126
4433.834409
4424.619810
4454.287627
4435.100751
4417.855955
4433.664519
4408.656647
4445.394165
4465.287514
4449.280418
4438.749561
4464.768491
4461.863545
4448.482181
4463.831493
4428.947780
4433.140677
4436.764246
4428.732805
4430.578576
4427.015740
4433.846185
4409.970536
4443.849886
4440.683064
4442.885149
4454.673580
4394.126076
4405.569508
4442.596305
4412.969412
4433.653306
4435.271859
4424.075869
4419.295378
4447.852289
4408.833216
4447.507625
4415.433399
4468.057672
4422.993622
4459.419224
4452.261311
4457.598674
4455.280475
4462.140874
4435.539992
4430.115586
4430.005427
4422.891219
4440.465441
4409.407871
4415.165086
4440.485297
4414.145813
4401.034935
4425.127708
4420.715180
4440.124379
4447.987326
4392.931007
4443.551889
4455.977169
4435.924249
4422.565401
4448.842912
4441.128454
4446.226042
4424.577197
4445.172126
4451.790125
4464.146865
4450.992283
4439.886914
4476.661331
4449.965464
4459.137154
4447.036548
4419.296945
4446.172885
4442.122310
4424.313021
4435.804108
4451.053656
4407.830043
4439.344254
4435.890789
4421.001099
4422.182399
4435.388779
4439.094107
4461.550083
4427.636419
4422.535590
4452.115314
4432.716617
4391.982640
4462.841695
4457.563817
4413.733183
4447.811054
4452.455586
4446.131238
4451.426575
4444.213962
4479.691891
4462.294820
4456.499827
4430.634337
4430.748756
4422.212457
4421.521111
4430.319289
4429.962783
4406.149997
4438.663186
4440.067217
4433.928847
4396.067444
4453.504247
4413.820010
4411.557933
4453.900395
4405.749426
4440.955786
4428.355531
4449.588726
4420.352018
4443.816384
4444.420357
4450.478827
4420.205255
4442.041326
4455.805719
4441.095112
4458.040746
4457.100786
4453.202259
4453.005910
4426.628940
4444.140501
4447.744250
4425.529647
4447.132849
4395.582420
4441.467206
4409.404895
4398.162723
4464.093394
4428.164609
4459.065991
4439.754973
4402.389416
4404.247324
4439.250798
4451.999210
4410.162354
4437.349793
4435.848502
4430.778217
4459.586878
4449.397688
4417.695053
4462.300120
4444.611434
4441.210481
4449.185273
4449.406196
4457.601520
4450.399138
4443.250129
4429.816204
4402.599249
4467.859703
4417.134257
4465.313561
4431.353156
4443.417231
4442.128478
4410.538219
4411.976203
4399.262051
4461.528708
4455.270110
4435.174983
4449.218913
4429.393301
4459.173707
4432.442392
4426.120176
4441.040278
4436.167697
4426.502307
4450.907688
4436.599450
4438.932102
4452.536867
4449.543885
4452.333832
4458.983557
4451.300236
4429.423052
4421.299752
4429.061728
4422.539821
4411.171955
4436.032911
4399.356956
4450.089288
4416.343407
4446.920205
4448.289023
4442.057288
4435.017540
4453.784806
4393.001680
4459.374974
4457.454159
4430.427917