# vtk DataFile Version 2.0
mfree iwf
ASCII

DATASET UNSTRUCTURED_GRID
POINTS 6231 float
0.000000 0.000300 0.000000
0.000000 0.000310 0.000000
0.000000 0.000320 0.000000
0.000000 0.000330 0.000000
0.000000 0.000340 0.000000
0.000001 0.000350 0.000000
0.000001 0.000360 0.000000
0.000001 0.000370 0.000000
0.000001 0.000380 0.000000
0.000001 0.000391 0.000000
0.000001 0.000401 0.000000
0.000001 0.000411 0.000000
0.000001 0.000421 0.000000
0.000001 0.000431 0.000000
0.000002 0.000441 0.000000
0.000002 0.000451 0.000000
0.000002 0.000461 0.000000
0.000002 0.000471 0.000000
0.000002 0.000480 0.000000
0.000002 0.000492 0.000000
0.000006 0.000501 0.000000
0.000246 0.000593 0.000000
0.000248 0.000668 0.000000
0.000246 0.000608 0.000000
0.000249 0.000683 0.000000
0.000255 0.000705 0.000000
0.000275 0.000750 0.000000
0.000278 0.000755 0.000000
0.000288 0.000764 0.000000
0.000297 0.000774 0.000000
0.000323 0.000804 0.000000
0.000010 0.000300 0.000000
0.000010 0.000310 0.000000
0.000010 0.000320 0.000000
0.000010 0.000330 0.000000
0.000010 0.000340 0.000000
0.000011 0.000350 0.000000
0.000011 0.000360 0.000000
0.000011 0.000370 0.000000
0.000011 0.000380 0.000000
0.000011 0.000390 0.000000
0.000011 0.000400 0.000000
0.000011 0.000411 0.000000
0.000011 0.000420 0.000000
0.000011 0.000430 0.000000
0.000012 0.000440 0.000000
0.000012 0.000451 0.000000
0.000012 0.000460 0.000000
0.000012 0.000472 0.000000
0.000013 0.000478 0.000000
0.000010 0.000492 0.000000
0.000013 0.000498 0.000000
0.000266 0.000719 0.000000
0.000271 0.000730 0.000000
0.000276 0.000739 0.000000
0.000281 0.000744 0.000000
0.000294 0.000758 0.000000
0.000300 0.000765 0.000000
0.000310 0.000776 0.000000
0.000315 0.000785 0.000000
0.000319 0.000791 0.000000
0.000320 0.000798 0.000000
0.000020 0.000300 0.000000
0.000020 0.000310 0.000000
0.000020 0.000320 0.000000
0.000020 0.000330 0.000000
0.000020 0.000340 0.000000
0.000021 0.000351 0.000000
0.000020 0.000360 0.000000
0.000021 0.000370 0.000000
0.000020 0.000380 0.000000
0.000022 0.000390 0.000000
0.000021 0.000400 0.000000
0.000022 0.000410 0.000000
0.000021 0.000420 0.000000
0.000023 0.000431 0.000000
0.000020 0.000440 0.000000
0.000024 0.000451 0.000000
0.000021 0.000460 0.000000
0.000022 0.000470 0.000000
0.000021 0.000482 0.000000
0.000024 0.000494 0.000000
0.000020 0.000497 0.000000
0.000261 0.000686 0.000000
0.000267 0.000711 0.000000
0.000271 0.000723 0.000000
0.000278 0.000730 0.000000
0.000291 0.000733 0.000000
0.000294 0.000750 0.000000
0.000309 0.000767 0.000000
0.000316 0.000779 0.000000
0.000328 0.000785 0.000000
0.000333 0.000791 0.000000
0.000030 0.000300 0.000000
0.000030 0.000310 0.000000
0.000030 0.000320 0.000000
0.000030 0.000330 0.000000
0.000030 0.000340 0.000000
0.000031 0.000350 0.000000
0.000030 0.000360 0.000000
0.000031 0.000371 0.000000
0.000031 0.000380 0.000000
0.000031 0.000390 0.000000
0.000031 0.000400 0.000000
0.000032 0.000411 0.000000
0.000031 0.000420 0.000000
0.000032 0.000430 0.000000
0.000031 0.000440 0.000000
0.000031 0.000450 0.000000
0.000032 0.000459 0.000000
0.000037 0.000473 0.000000
0.000030 0.000478 0.000000
0.000033 0.000488 0.000000
0.000032 0.000497 0.000000
0.000063 0.000500 0.000000
0.000274 0.000709 0.000000
0.000281 0.000719 0.000000
0.000292 0.000742 0.000000
0.000307 0.000745 0.000000
0.000303 0.000753 0.000000
0.000313 0.000759 0.000000
0.000319 0.000766 0.000000
0.000327 0.000774 0.000000
0.000340 0.000784 0.000000
0.000040 0.000300 0.000000
0.000040 0.000310 0.000000
0.000040 0.000320 0.000000
0.000040 0.000330 0.000000
0.000040 0.000340 0.000000
0.000040 0.000351 0.000000
0.000041 0.000360 0.000000
0.000041 0.000369 0.000000
0.000041 0.000380 0.000000
0.000040 0.000390 0.000000
0.000042 0.000399 0.000000
0.000041 0.000410 0.000000
0.000042 0.000420 0.000000
0.000040 0.000431 0.000000
0.000043 0.000439 0.000000
0.000043 0.000450 0.000000
0.000043 0.000460 0.000000
0.000037 0.000470 0.000000
0.000045 0.000478 0.000000
0.000043 0.000496 0.000000
0.000040 0.000498 0.000000
0.000246 0.000534 0.000000
0.000285 0.000708 0.000000
0.000291 0.000723 0.000000
0.000298 0.000727 0.000000
0.000301 0.000737 0.000000
0.000317 0.000745 0.000000
0.000328 0.000762 0.000000
0.000336 0.000766 0.000000
0.000337 0.000775 0.000000
0.000346 0.000779 0.000000
0.000050 0.000300 0.000000
0.000050 0.000310 0.000000
0.000050 0.000319 0.000000
0.000050 0.000330 0.000000
0.000051 0.000340 0.000000
0.000050 0.000349 0.000000
0.000051 0.000360 0.000000
0.000049 0.000371 0.000000
0.000052 0.000380 0.000000
0.000050 0.000390 0.000000
0.000053 0.000401 0.000000
0.000049 0.000411 0.000000
0.000054 0.000420 0.000000
0.000050 0.000430 0.000000
0.000054 0.000440 0.000000
0.000048 0.000451 0.000000
0.000055 0.000459 0.000000
0.000053 0.000470 0.000000
0.000056 0.000483 0.000000
0.000049 0.000488 0.000000
0.000050 0.000498 0.000000
0.000261 0.000703 0.000000
0.000251 0.000659 0.000000
0.000293 0.000713 0.000000
0.000307 0.000727 0.000000
0.000314 0.000737 0.000000
0.000321 0.000752 0.000000
0.000327 0.000744 0.000000
0.000333 0.000754 0.000000
0.000344 0.000766 0.000000
0.000354 0.000771 0.000000
0.000060 0.000300 0.000000
0.000060 0.000310 0.000000
0.000061 0.000321 0.000000
0.000060 0.000330 0.000000
0.000061 0.000339 0.000000
0.000059 0.000351 0.000000
0.000062 0.000360 0.000000
0.000060 0.000369 0.000000
0.000063 0.000381 0.000000
0.000058 0.000390 0.000000
0.000064 0.000399 0.000000
0.000059 0.000409 0.000000
0.000064 0.000419 0.000000
0.000058 0.000431 0.000000
0.000067 0.000441 0.000000
0.000060 0.000449 0.000000
0.000066 0.000460 0.000000
0.000055 0.000471 0.000000
0.000064 0.000475 0.000000
0.000068 0.000486 0.000000
0.000059 0.000496 0.000000
0.000258 0.000696 0.000000
0.000275 0.000701 0.000000
0.000299 0.000711 0.000000
0.000307 0.000717 0.000000
0.000316 0.000727 0.000000
0.000326 0.000735 0.000000
0.000340 0.000746 0.000000
0.000343 0.000753 0.000000
0.000351 0.000758 0.000000
0.000360 0.000764 0.000000
0.000070 0.000300 0.000000
0.000070 0.000310 0.000000
0.000070 0.000319 0.000000
0.000070 0.000330 0.000000
0.000071 0.000341 0.000000
0.000069 0.000349 0.000000
0.000072 0.000360 0.000000
0.000068 0.000371 0.000000
0.000073 0.000378 0.000000
0.000070 0.000390 0.000000
0.000074 0.000401 0.000000
0.000068 0.000411 0.000000
0.000075 0.000421 0.000000
0.000067 0.000429 0.000000
0.000075 0.000437 0.000000
0.000066 0.000452 0.000000
0.000078 0.000459 0.000000
0.000072 0.000470 0.000000
0.000076 0.000486 0.000000
0.000068 0.000496 0.000000
0.000076 0.000496 0.000000
0.000246 0.000520 0.000000
0.000272 0.000691 0.000000
0.000291 0.000700 0.000000
0.000316 0.000714 0.000000
0.000325 0.000724 0.000000
0.000334 0.000730 0.000000
0.000339 0.000738 0.000000
0.000350 0.000743 0.000000
0.000358 0.000751 0.000000
0.000367 0.000756 0.000000
0.000080 0.000300 0.000000
0.000080 0.000310 0.000000
0.000080 0.000320 0.000000
0.000081 0.000330 0.000000
0.000080 0.000339 0.000000
0.000081 0.000350 0.000000
0.000080 0.000360 0.000000
0.000080 0.000369 0.000000
0.000082 0.000382 0.000000
0.000078 0.000391 0.000000
0.000084 0.000397 0.000000
0.000079 0.000409 0.000000
0.000083 0.000417 0.000000
0.000079 0.000432 0.000000
0.000087 0.000446 0.000000
0.000077 0.000448 0.000000
0.000085 0.000464 0.000000
0.000075 0.000470 0.000000
0.000087 0.000473 0.000000
0.000086 0.000483 0.000000
0.000084 0.000495 0.000000
0.000255 0.000685 0.000000
0.000246 0.000659 0.000000
0.000302 0.000702 0.000000
0.000312 0.000705 0.000000
0.000324 0.000716 0.000000
0.000337 0.000722 0.000000
0.000346 0.000727 0.000000
0.000355 0.000738 0.000000
0.000364 0.000744 0.000000
0.000373 0.000748 0.000000
0.000090 0.000300 0.000000
0.000090 0.000310 0.000000
0.000090 0.000320 0.000000
0.000090 0.000329 0.000000
0.000090 0.000340 0.000000
0.000091 0.000351 0.000000
0.000090 0.000360 0.000000
0.000092 0.000370 0.000000
0.000089 0.000379 0.000000
0.000092 0.000389 0.000000
0.000091 0.000403 0.000000
0.000091 0.000411 0.000000
0.000089 0.000424 0.000000
0.000096 0.000427 0.000000
0.000088 0.000435 0.000000
0.000097 0.000456 0.000000
0.000087 0.000453 0.000000
0.000098 0.000471 0.000000
0.000106 0.000480 0.000000
0.000089 0.000495 0.000000
0.000095 0.000495 0.000000
0.000246 0.000544 0.000000
0.000271 0.000685 0.000000
0.000262 0.000677 0.000000
0.000284 0.000695 0.000000
0.000327 0.000707 0.000000
0.000341 0.000714 0.000000
0.000351 0.000727 0.000000
0.000361 0.000730 0.000000
0.000370 0.000736 0.000000
0.000379 0.000741 0.000000
0.000100 0.000300 0.000000
0.000100 0.000310 0.000000
0.000100 0.000320 0.000000
0.000100 0.000331 0.000000
0.000101 0.000340 0.000000
0.000100 0.000349 0.000000
0.000101 0.000359 0.000000
0.000101 0.000371 0.000000
0.000101 0.000380 0.000000
0.000102 0.000390 0.000000
0.000099 0.000399 0.000000
0.000103 0.000408 0.000000
0.000101 0.000417 0.000000
0.000100 0.000436 0.000000
0.000109 0.000443 0.000000
0.000097 0.000445 0.000000
0.000107 0.000460 0.000000
0.000098 0.000466 0.000000
0.000094 0.000481 0.000000
0.000107 0.000491 0.000000
0.000101 0.000494 0.000000
0.000246 0.000613 0.000000
0.000246 0.000619 0.000000
0.000247 0.000652 0.000000
0.000321 0.000700 0.000000
0.000334 0.000704 0.000000
0.000344 0.000710 0.000000
0.000356 0.000717 0.000000
0.000363 0.000719 0.000000
0.000373 0.000729 0.000000
0.000384 0.000733 0.000000
0.000110 0.000300 0.000000
0.000110 0.000310 0.000000
0.000110 0.000321 0.000000
0.000110 0.000329 0.000000
0.000110 0.000340 0.000000
0.000111 0.000351 0.000000
0.000111 0.000361 0.000000
0.000110 0.000369 0.000000
0.000112 0.000379 0.000000
0.000110 0.000390 0.000000
0.000112 0.000401 0.000000
0.000110 0.000414 0.000000
0.000117 0.000423 0.000000
0.000106 0.000426 0.000000
0.000113 0.000433 0.000000
0.000107 0.000449 0.000000
0.000116 0.000461 0.000000
0.000111 0.000471 0.000000
0.000116 0.000480 0.000000
0.000111 0.000493 0.000000
0.000119 0.000492 0.000000
0.000246 0.000573 0.000000
0.000246 0.000562 0.000000
0.000271 0.000675 0.000000
0.000293 0.000692 0.000000
0.000294 0.000683 0.000000
[...]
POINT_DATA 6231
SCALARS density float 1
LOOKUP_TABLE default
4398.708614
4424.594534
4418.711446
4421.077679
4425.464202
4423.864147
4425.262748
4426.241670
4428.076956
4429.269978
4424.549528
4427.798687
4429.350683
4430.472356
4430.131675
4440.051605
4422.594744
4432.448979
4412.930682
4423.452004
4411.480602
4667.922733
4413.468282
4464.219222
4430.463664
4440.510028
4405.125648
4438.631273
4436.234267
4449.518972
4417.932287
4406.017811
4421.488990
4421.633184
4427.220709
4422.825217
4425.701954
4423.972526
4421.079554
4426.359738
4429.737501
4427.341896
4435.701615
4425.938239
4435.073654
4415.706279
4428.836289
4410.342314
4442.305020
4461.799007
4460.322635
4415.132589
4395.157708
4381.217912
4403.083042
4456.283566
4406.837308
4405.253577
4417.767975
4412.593271
4430.221090
4463.116775
4415.390499
4423.769752
4422.577359
4423.662422
4417.290007
4427.570032
4426.534038
4438.234850
4423.331422
4423.736828
4427.740489
4428.878476
4412.649953
4442.777992
4416.799229
4473.195498
4398.988263
4453.733256
4352.218476
4450.812640
4419.804045
4426.532959
4399.019654
4388.949861
4516.986729
4340.941263
4423.286415
4464.458068
4415.751940
4436.279571
4396.748222
4416.543318
4419.922923
4424.981134
4421.735469
4435.774524
4432.543421
4414.920016
4426.407273
4415.366443
4446.159489
4410.705381
4440.596151
4426.118988
4443.006693
4400.051920
4433.182233
4392.478913
4456.594053
4370.734789
4554.500867
4370.396809
4430.997972
4524.609551
4482.926992
4436.654693
4377.593087
4468.824699
4417.008812
4420.823601
4490.915138
4446.942005
4423.905159
4428.779724
4435.034479
4427.066340
4422.564276
4419.899501
4433.872491
4441.504814
4415.705379
4440.368898
4399.846510
4451.372535
4393.395452
4442.921091
4417.086909
4449.899854
4384.089012
4507.861253
4309.906199
4419.830563
4384.309274
4532.150989
4344.324070
4364.778961
4477.755888
4474.712047
4443.006138
4397.905084
4434.335428
4367.468684
4428.642047
4435.196713
4422.397136
4416.409449
4427.626149
4431.256138
4438.542913
4412.769567
4427.346728
4422.197948
4438.007084
4428.147289
4444.565976
4400.473422
4469.007430
4356.822537
4479.772691
4355.442972
4482.070178
4363.158245
4537.647216
4382.693998
4429.572540
4410.210618
4497.712084
4430.556911
4405.718354
4449.782338
4404.267314
4409.816785
4443.835028
4415.867718
4421.056552
4427.895934
4437.049599
4438.488166
4415.784523
4432.312055
4429.474222
4437.077196
4416.638271
4434.808545
4413.815031
4434.577515
4430.549290
4437.838896
4421.719685
4474.480779
4400.305327
4516.354058
4366.696554
4484.146164
4430.892662
4417.837757
4366.745869
4454.219740
4401.086941
4422.019259
4449.758966
4454.410086
4443.753320
4404.506795
4444.414679
4421.633338
4433.344738
4423.959440
4411.979467
4444.271121
4427.018596
4424.080427
4435.505199
4416.916291
4434.218848
4424.269204
4422.767981
4422.327941
4425.169024
4452.359287
4460.792121
4443.824102
4464.036865
4446.535763
4412.601938
4384.931439
4594.680665
4463.232927
4461.839700
4470.574297
4451.989999
4441.552311
4403.689835
4440.612930
4407.066098
4421.095881
4425.910681
4426.442950
4414.473565
4441.887779
4434.724603
4411.500795
4443.998258
4421.504863
4441.334514
4435.489801
4398.077201
4427.618717
4418.888520
4431.050805
4463.275588
4385.717106
4453.022442
4449.218407
4355.191276
4471.831571
4411.965333
4424.620597
4454.554034
4381.812130
4447.504853
4414.751916
4414.785125
4446.575691
4438.347597
4433.374688
4429.628762
4426.046783
4436.236791
4437.674596
4425.181858
4405.314163
4441.190413
4429.620218
4418.157853
4439.736597
4413.365298
4445.168201
4415.466389
4417.357036
4463.398480
4414.611490
4380.129899
4442.071073
4436.557211
4426.943527
4426.032868
4411.769174
4546.999985
4443.897511
4430.485956
4472.039151
4432.207197
4441.626158
4462.736643
4398.308950
4427.126742
4424.808437
4433.026274
4424.821266
4415.648284
4427.413211
4447.200165
4437.858300
4411.283850
4428.280842
4426.940183
4423.089600
4442.483787
4425.126894
4418.047553
4387.692972
4444.555566
4447.132962
4411.978524
4472.025630
4423.335319
4435.500861
4416.361866
4458.837907
4489.298507
4392.789476
4397.897753
4447.076542
4460.122192
4423.293397
4456.750515
4433.340193
4407.345654
4428.750012
4423.418078
4444.303232
4435.327150
4407.811497
4410.512632
4448.875234
4444.398311
4410.383515
4435.215920
4406.884237
4446.679282
4408.787574
4440.164623
4423.899795
4444.132888
4470.543904
4388.826935
4458.926839
4406.528527
4417.599535
4445.970621
4635.325847
4412.119431
4416.216181
4430.642396
4441.028608
4458.481704
4460.220817
4415.185975
4426.548208
4434.999602
4423.664076
4426.749664
4408.921463
4441.271257
4453.105566
4400.505974
4412.175738
4437.416479
4439.144912
4409.093786
4446.583117
4422.284084
4442.487295
4412.649806
4373.511190
4424.866131
4393.054968
4419.367124
4439.947733
4397.420929
4430.791090
4464.846812
4432.990315
4461.011115
4453.734872
4364.581871
4448.819966
4384.591861
4425.037281
4407.781408
4424.875478
4429.412174
4424.144851
4439.532034
4424.516619
4405.024526
4441.779598
4441.823561
4425.280168
4400.708682
4431.030914
4411.283569
4441.784342
4415.977147
4407.602759
4449.465414
4425.439035
4445.753888
4484.296401
4422.847490
4450.712831
4392.785767
4387.868508
4386.489952
4433.948891
4436.749089
4419.251837
4445.039214
4434.526365
4469.097403
4412.136486
4420.712321
4443.716132
4436.397315
4408.355682
4420.226684
4434.287450
4441.020898
4399.470694
4431.460196
4432.412449
4440.948039
4420.580095
4419.138965
4401.285232
4445.631279
4380.804186
4401.394469
4496.099567
4574.597494
4391.940435
4373.670276
4413.302250
4442.764680
4469.776091
4514.272844
4385.023052
4462.146259
4443.978011
4450.934632
4425.676568
4441.472341
4430.678631
4426.123883
4413.758381
4443.783904
4438.960830
4404.837611
4410.051068
4448.541793
4435.796691
4392.791600
4425.292854
4423.193884
4440.260787
4404.818387
4441.432473
4419.953131
4485.387431
4357.947849
4330.892943
4504.842682
4397.663714
4458.934714
4466.543000
4408.390655
4452.241774
4373.193610
4456.817890
4430.939239
4401.756640
4410.590427
4411.385383
4428.234411
4430.809717
4434.398548
4441.446451
4402.036607
4444.000355
4439.583850
4402.124712
4413.622721
4445.533451
4440.500618
4409.558225
4424.824441
4403.604873
4434.093728
4414.493154
4412.196207
4490.947385
4481.873331
4424.982065
4408.078200
4462.950632
4438.266953
4436.237431
4465.773025
4386.040659
4440.591279
4438.738998
4414.199983
4439.947218
4422.673021
4433.235551
4425.808018
4418.330157
4411.021872
4438.441347
4441.802077
4400.252488
4442.693097
4432.217212
4409.910121
4406.910476
4438.575670
4426.296132
4453.178968
4387.248688
4453.393314
4402.813014
4467.678115
4333.095688
4358.201762
4432.412978
4435.354338
4430.738858
4479.202053
4410.711535
4464.938066
4475.527986
4419.843301
4441.051751
4434.104041
4429.233363
4423.417518
4421.495091
4435.323347
4444.054486
4421.317025
4408.970561
4434.491634
4446.127005
4398.331584
4439.492559
4429.374662
4428.674224
4399.268324
4423.783493
4398.740698
4445.428902
4331.746095
4481.332792
4392.592402
4453.432476
4398.292447
4423.882013
4409.701278
4487.012230
4486.381484
4393.637052
4436.759907
4439.980750
4424.940563
4415.973273
4420.103050
4419.955621
4439.335812
4431.410809
4409.664206
4416.893887
4445.597709
4421.675600
4405.506880
4432.993841
4447.005137
4384.605514
4449.311815
4406.274488
4456.226395
4409.801780
4441.465542
4461.716381
4479.391952
4423.064126
4571.628327
4382.221397
4460.445256
4448.291854
4445.215307
4428.854099
4375.919585
4439.504077
4425.570172
4450.151300
4425.549686
4408.578485
4429.757982
4430.604463
4406.268500
4442.545573
4451.784733
4406.626083
4414.673596
4442.348383
4415.718277
4413.654219
4443.890946
4443.234905
4383.047290
4425.620697
4408.256221
4409.968290
4398.309533
4465.238951
4375.951335
4395.447590
4584.131727
4450.643273
4506.467495
4503.431747
4431.327507
4433.013124
4446.024423
4434.273167
4438.946886
4416.222014
4377.012246
4424.929112
4427.430082
4438.642823
4437.979087
4390.570064
4438.786598
4448.001475
4409.106411
4408.735314
4430.504374
4417.262964
4406.662612
4447.093714
4424.691285
4414.182704
4472.937469
4393.190516
4478.422267
4382.935749
4468.880478
4423.960045
4448.077225
4479.719655
4418.988233
4457.934693
4412.154333
4440.847152
4454.960446
4405.927550
4406.842876
4438.710758
4431.087004
4419.810703
4424.381137
4410.331218
4449.636055
4445.324388
4388.518590
4427.397133
4445.071578
4410.619554
4406.913066
4434.883329
4435.245769
4408.609562
4412.152815
4411.215446
4393.830128
4445.781885
4411.385604
4462.139144
4433.519844
4426.716992
4488.424153
4454.049842
4459.588234
4449.582112
4460.822440
4420.005197
4473.537318
4405.149432
4445.284591
4422.919373
4421.601759
4434.223393
4432.531200
4421.375279
4398.574615
4447.243781
4451.811878
4389.201122
4423.370782
4438.222216
4404.982109
4387.175479
4467.689266
4405.565149
4428.001796
4428.892850
4412.900137
4445.595569
4416.023259
4398.149459
4468.380868
4465.084634
4473.764398
4446.943713
4433.922706
4457.362987
4419.265759
4442.762482
4424.940892
4428.208169
4417.353890
4439.767817
4431.131483
4415.394422
4419.087355
4441.466715
4429.349968
4391.298373
4440.344100
4446.511466
4389.585831
4425.346431
4440.354188
4419.956830
4385.238003
4448.440281
4413.747659
4398.465801
4454.509274
4453.600506
4383.245726
4492.020283
4449.628266
4441.031451
4450.326028
4435.138839
4450.437427
4439.580407
4413.054661
4422.162303
4457.686833
4430.764624
4432.620332
4403.878961
4445.570820
4442.880389
4409.241188
4402.020831
4451.210980
4439.885836
4391.471230
4420.494967
4424.672705
4391.349423
4410.264652
4444.107032
4387.417264
4435.592578
4439.207642
4410.719327
4484.037221
4421.164849
4488.884824
4458.360623
4460.449922
4440.485424
4446.883508
4455.503708
4442.394100
4450.386875
4432.627386
4403.588718
4427.686081
4430.683363
4438.808720
4441.760454
4393.470275
4447.345995
4445.608257
4406.542160
4395.460366
4442.093526
4451.684203
4393.258919
4425.170084
4422.453000
4434.693230
4383.607271
4449.313118
4418.675058
4407.933651
4461.466044
4450.092831
4442.087355
4443.765767
4472.251239
4438.390097
4464.978772
4434.248868
4438.628274
4472.588677
4414.665472
4417.602408
4429.119498
4423.676126
4424.331852
4411.618622
4444.942986
4446.209788
4391.955967
4434.025256
4444.803081
4418.858715
4391.520390
4431.779632
4447.175035
4400.265742
4413.408779
4442.784751
4427.319654
4409.616796
4461.356980
4396.101636
4422.524171
4474.141264
4453.646814
4457.471392
4456.000960
4434.677189
4445.672357
4421.971616
4465.065904
4405.847809
4426.133679
4426.747954
4427.642203
4434.866003
4434.356611
4432.624514
4396.266203
4446.428037
4449.185145
4394.677827
4420.096241
4445.625362
4433.100133
4385.804781
4431.970443
4426.331683
4446.283644
4390.424848
4441.420697
4420.234154
4458.538392
4464.551676
4404.269728
4473.712323
4407.949525
4445.233695
4443.739011
4439.678641
4410.860906
4412.038653
4475.916492
4445.812776
4423.185300
4433.605542
4430.807917
4419.614665
4420.447084
4439.958360
4438.860856
4389.602080
4448.508480
4450.362423
4391.984747
4416.419487
4439.533776
4446.340441
4406.712140
4414.333555
4449.924950
4416.739523
4429.661967
4421.133025
4468.948289
4406.698944
4436.667208
4414.880071
4462.505402
4438.190697
4447.459047
4446.732353
4437.802209
4418.872301
4445.819731
4430.950637
4431.735126
4420.150589
4442.284828
4445.248537
4414.505060
4406.661836
4443.430952
4431.157505
4398.656208
4450.450936
4438.383105
4406.514758
4390.550939
4432.588704
4442.211656
4404.615305
4419.884413
4459.077396
4424.281256
4432.234470
4430.071783
4471.561346
4425.268724
4410.287277
4453.361403
4456.023855
4468.490127
4501.700589
4432.270854
4423.149045
4432.005501
4434.188411
4436.238615
4431.010764
4403.995246
4445.248874
4438.189480
4424.348594
4411.929826
4427.020359
4448.506148
4393.285847
4429.611146
4451.268823
4422.261085
4400.585065
4429.518927
4418.214259
4417.961980
4448.641213
4462.922509
4446.118670
4430.624219
4419.019995
4420.428990
4447.596659
4409.181175
4438.327248
4471.733212
4443.648347
4439.413474
4437.410998
4429.527365
4424.058364
4434.274015
4447.366260
4436.942841
4407.557204
4416.142923
4437.026236
4434.422994
4401.702092
4440.591742
4446.470063
4390.889563
4402.404320
4429.769493
4441.240694
4411.748276
4433.478847
4428.004777
4413.692743
4442.936601
4442.074386
4467.335692
4424.858598
4421.319610
4463.324377
4426.521326
4423.046293
4463.677595
4436.708889
4438.241871
4419.531157
4451.160662
4417.142232
4426.294299
4405.242898
4444.427786
4454.724128
4410.701063
4410.156523
4434.541422
4435.670724
4403.790121
4443.051954
4447.530243
4416.904328
4405.003429
4418.216155
4412.443876
4429.024986
4407.994994
4427.186764
4424.821379
4432.246051
4434.144202
4431.555480
4423.867685
4462.092109
4419.917727
4482.243109
4437.189198
4432.856477
4429.340720
4448.718214
4409.430941
4440.140471
4449.045133
4408.935806
4391.358781
4443.745129
4441.678680
4419.991227
4415.015495
4421.279041
4446.543721
4393.713070
4402.595659
4442.207423
4441.128983
4385.851708
4467.497757
4436.036452
4443.529067
4418.300490
4425.837732
4433.464711
4454.008054
4462.364700
4456.755128
4417.305149
4470.516723
4479.560634
4444.548740
4434.213027
4415.123269
4445.955899
4427.067091
4407.206422
4451.794002
4448.955788
4420.443502
4419.687600
4426.473314
4441.469701
4436.227601
4409.133277
4451.989090
4445.163628
4411.935289
4409.854517
4456.883500
4368.344270
4444.429756
4444.856998
4458.490795
4438.108751
4408.262433
4415.098465
4438.634950
4464.769711
4502.544817
4453.512594
4468.114444
4422.669910
4426.772390
4443.650986
4438.046699
4416.540231
4466.610090
4424.393899
4403.945581
4436.441277
4414.184623
4442.233036
4428.575045
4421.223077
4435.524582
4421.288499
4388.952304
4441.857677
4431.360658
4433.644452
4413.736498
4437.060021
4437.243363
4395.458542
4405.560618
4460.753267
4450.809382
4418.566992
4397.616815
4477.361838
4427.979443
4468.737207
4420.846608
4431.707494
4435.851171
4415.711469
4424.805446
4416.211091
4410.395045
4451.029526
4451.073354
4423.227102
4430.070561
4418.970504
4445.321118
4412.684572
4443.193678
4434.753819
4442.665024
4396.194718
4450.300410
4440.458475
4436.578916
4419.386740
4457.073857
4445.383083
4462.997993
4433.525605
4471.200203
4436.546264
4494.609430
4437.989055
4467.353848
4434.995999
4433.363226
4401.819219
4444.659257
4443.605180
4428.530641
4430.261918
4422.307112
4390.698529
4443.675862
4423.403969
4407.586018
4443.038684
4410.164390
4426.862945
4431.557620
4403.337464
4441.546544
4457.118974
4413.358147
4447.499210
4447.708581
4444.837339
4421.061048
4448.171000
4466.540757
4456.495517
4456.027082
4480.161135
4450.144708
4467.496381
4428.688284
4418.539650
4441.103039
4439.957545
4402.822541
4443.770255
4425.073472
4417.348181
4449.861866
4425.844218
4419.018773
4461.883595
4419.609275
4448.306077
4410.603892
4417.293014
4437.404364
4407.922415
4443.676199
4413.276016
4446.055491
4404.210627
4450.725909
4453.861387
4442.700780
4464.927237
4454.045876
4448.637382
4452.692150
4448.627300
4464.480283
4425.599421
4427.722778
4423.277138
4404.374541
4462.629655
4427.023142
4420.453493
4445.432725
4399.120412
4432.103800
4412.204374
4412.204207
4414.170236
4428.761928
4446.053048
4434.758484
4451.389933
4393.870921
4437.627812
4434.511707
4410.745475
4435.189755
4439.518855
4432.002387
4440.655353
4437.730535
4466.677338
4446.638434
4469.886243
4458.210797
4459.634134
4424.222486
4438.296206
4435.656719
4428.489921
4453.887644
4408.238853
4450.637127
4416.521808
4435.181518
4441.010362
4426.482781
4439.075085
4431.065584
4442.093469
4400.102784
4444.019604
4404.122662
4453.885674
4446.164270
4409.839874
4453.295680
4432.940073
4442.633063
4453.776513
4439.850660
4469.787899
4450.079839
4452.656208
4458.846840
4455.996049
4456.891542
4437.602295
4435.771560
4411.118653
4437.619979
4382.395301
4451.674226
4438.450379
4419.361761
4461.439075
4399.570050
4423.830571
4420.757956
4415.212127
4429.515945
4418.698719
4435.333155
4422.796008
4450.066512
4415.619442
4446.719586
4432.694006
4398.863195
4447.446925
4434.255118
4455.851671
4433.608668
4453.095558
4463.975116
4456.640523
4456.028848
4455.708847
4434.433230
4428.792564
4425.953558
4457.302690
4421.989871
4453.442421
4403.458331
4465.532019
4398.583141
4456.755356
4442.179598
4414.597835
4445.214103
4414.003274
4449.686141
4419.070843
4443.045374
4408.610814
4450.046607
4443.516081
4428.272834
4469.712562
4427.426804
4453.433682
4456.399420
4449.762102
4473.571765
4438.236635
4456.328042
4450.182226
4453.587950
4424.794604
4425.850179
4436.428066
4400.486964
4436.870801
4414.309624
4420.614177
4448.206486
4442.974874
4445.660140
4405.294685
4423.521632
4445.144662
4417.981467
4440.134973
4442.310710
4448.588292
4433.762812
4445.816620
4409.984017
4448.402675
4436.739418
4396.287119
4454.539651
4428.234184
4448.986823
4450.507126
4455.862144
4454.674842
4454.519779
4452.873309
4429.191610
4435.917820
4434.439268
4427.348728
4458.971977
4436.651331
4457.888009
4409.210043
4432.320595
4431.589326
4461.946335
4448.158731
4400.709317
4454.834680
4402.842462
4442.286954
4406.924294
4448.648870
4434.616774
4440.206936
4460.994005
4411.708442
4466.871476
4411.962230
4457.750976
4454.401455
4449.184461
4461.538635
4440.394986
4454.417201
4451.083567
4440.129042
4428.145055
4418.095270
4428.607164
4397.344575
4449.524708
4440.224227
4399.336388
4437.456927
4421.238442
4429.473930
4412.579170
4460.888327
4436.920380
4404.898790
4434.835070
4453.362118
4430.134825
4439.796793
4421.251857
4429.269831
4442.931290
4475.545418
4397.258948
4457.548488
4422.188978
4462.862777
4450.315340
4445.463352
4456.798570
4448.515698
4432.758590
4427.545994
4446.344605
4446.011488
4431.368252
4437.139857
4432.388723
4451.624317
4438.679039
4415.556371
4439.722058
4421.243270
4447.811913
4394.674410
4449.905295
4430.614339
4440.319721
4412.085321
4448.432782
4459.623563
4421.920290
4432.611949
4426.853525
4470.743913
4418.222543
4429.191262
4439.106644
4444.638838
4466.819292
4453.054540
4451.801019
4429.431304
4433.726618
4429.860087
4403.059849
4441.776293
4427.262311
4438.840970
4442.553976
4410.508299
4445.657185
4421.487022
4421.263073
4437.802371
4463.572507
4412.738417
4417.304818
4451.207617
4444.873599
4418.129963
4424.465387
4420.919548
4436.601660
4430.514981
4454.065477
4418.231294
4465.374893
4427.287660
4433.825782
4437.873896
4439.484774
4452.070496
4434.580291
4433.957936
4425.329452
4449.911098
4461.291474
4418.713424
4421.023397
4415.736190
4446.431463
4457.380850
4421.752105
4437.626850
4436.594558
4425.826228
4437.280969
4447.898519
4438.651657
4424.380138
4420.476340
4452.525632
4438.045087
4445.294798
4441.038636
4439.922622
4463.153751
4445.462931
4439.414131
4452.346315
4445.409478
4458.941385
4452.217393
4432.024679
4441.746698
4426.088001
4434.913209
4389.968585
4463.498662
4435.707720
4432.430105
4444.163299
4426.293564
4429.498246
4459.319713
4403.803247
4436.194088
4446.646508
4424.486006
4421.422197
4447.799748
4448.951012
4415.960779
4445.193138
4419.328869
4434.983505
4456.303884
4431.604456
4433.472805
4456.553548
4426.986992
4443.894618
4439.067526
4448.182771
4435.142737
4437.786779
4416.807029
4451.271630
4445.517898
4425.998987
4411.748927
4445.486376
4423.286287
4457.034318
4444.063505
4443.071122
4454.184109
4407.242464
4411.122316
4432.023987
4454.728756
4415.358279
4428.414592
4415.576495
4452.210606
4457.196026
4442.153742
4438.290529
4445.741699
4451.985390
4449.678565
4443.836454
4455.744643
4448.651088
4450.368713
4438.962691
4430.821524
4442.859423
4428.014255
4407.905432
4442.385121
4431.831273
4444.910322
4424.269385
4432.216027
4418.008344
4438.673934
4459.873292
4443.914117
4449.649915
4420.524057
4439.115194
4432.716599
4452.651749
4439.172789
4444.958586
4431.824388
4430.330069
4441.106341
4422.756787
4440.428316
4429.979699
4447.720085
4438.736559
4445.820213
4449.815843
4437.901136
4423.457721
4438.672661
4422.109684
4455.995995
4445.221120
4421.198364
4434.569232
4431.825622
4449.125245
4435.375865
4439.608685
4413.424804
4465.243973
4395.276394
4455.886423
4436.401760
4449.100479