# vtk DataFile Version 2.0
mfree iwf
ASCII

DATASET UNSTRUCTURED_GRID
POINTS 6231 float
0.000000 0.000300 0.000000
0.000000 0.000310 0.000000
0.000000 0.000320 0.000000
0.000000 0.000330 0.000000
0.000000 0.000340 0.000000
0.000001 0.000350 0.000000
0.000001 0.000360 0.000000
0.000001 0.000370 0.000000
0.000001 0.000380 0.000000
0.000001 0.000390 0.000000
0.000001 0.000400 0.000000
0.000001 0.000410 0.000000
0.000001 0.000421 0.000000
0.000001 0.000431 0.000000
0.000002 0.000441 0.000000
0.000002 0.000451 0.000000
0.000002 0.000461 0.000000
0.000002 0.000471 0.000000
0.000002 0.000480 0.000000
0.000002 0.000492 0.000000
0.000006 0.000501 0.000000
0.000280 0.000623 0.000000
0.000288 0.000702 0.000000
0.000280 0.000640 0.000000
0.000291 0.000717 0.000000
0.000300 0.000738 0.000000
0.000326 0.000780 0.000000
0.000330 0.000784 0.000000
0.000341 0.000791 0.000000
0.000351 0.000801 0.000000
0.000380 0.000827 0.000000
0.000010 0.000300 0.000000
0.000010 0.000310 0.000000
0.000010 0.000320 0.000000
0.000010 0.000330 0.000000
0.000010 0.000340 0.000000
0.000010 0.000350 0.000000
0.000011 0.000360 0.000000
0.000011 0.000370 0.000000
0.000011 0.000380 0.000000
0.000011 0.000390 0.000000
0.000011 0.000400 0.000000
0.000011 0.000411 0.000000
0.000011 0.000420 0.000000
0.000011 0.000430 0.000000
0.000012 0.000440 0.000000
0.000012 0.000451 0.000000
0.000012 0.000460 0.000000
0.000012 0.000472 0.000000
0.000013 0.000478 0.000000
0.000010 0.000492 0.000000
0.000013 0.000498 0.000000
0.000313 0.000751 0.000000
0.000320 0.000761 0.000000
0.000325 0.000769 0.000000
0.000331 0.000773 0.000000
0.000346 0.000785 0.000000
0.000353 0.000791 0.000000
0.000364 0.000801 0.000000
0.000371 0.000810 0.000000
0.000375 0.000814 0.000000
0.000376 0.000821 0.000000
0.000020 0.000300 0.000000
0.000020 0.000310 0.000000
0.000020 0.000320 0.000000
0.000020 0.000330 0.000000
0.000020 0.000340 0.000000
0.000021 0.000351 0.000000
0.000020 0.000360 0.000000
0.000021 0.000370 0.000000
0.000020 0.000380 0.000000
0.000021 0.000390 0.000000
0.000021 0.000400 0.000000
0.000022 0.000410 0.000000
0.000020 0.000420 0.000000
0.000023 0.000431 0.000000
0.000020 0.000440 0.000000
0.000024 0.000451 0.000000
0.000021 0.000460 0.000000
0.000022 0.000470 0.000000
0.000021 0.000481 0.000000
0.000024 0.000494 0.000000
0.000020 0.000497 0.000000
0.000303 0.000719 0.000000
0.000313 0.000742 0.000000
0.000318 0.000754 0.000000
0.000326 0.000759 0.000000
0.000339 0.000761 0.000000
0.000344 0.000776 0.000000
0.000362 0.000792 0.000000
0.000371 0.000803 0.000000
0.000383 0.000807 0.000000
0.000389 0.000812 0.000000
0.000030 0.000300 0.000000
0.000030 0.000310 0.000000
0.000030 0.000320 0.000000
0.000030 0.000331 0.000000
0.000030 0.000340 0.000000
0.000031 0.000349 0.000000
0.000030 0.000360 0.000000
0.000031 0.000370 0.000000
0.000030 0.000380 0.000000
0.000032 0.000391 0.000000
0.000030 0.000400 0.000000
0.000032 0.000411 0.000000
0.000031 0.000420 0.000000
0.000032 0.000430 0.000000
0.000031 0.000440 0.000000
0.000030 0.000450 0.000000
0.000032 0.000459 0.000000
0.000037 0.000473 0.000000
0.000030 0.000478 0.000000
0.000033 0.000488 0.000000
0.000032 0.000497 0.000000
0.000063 0.000500 0.000000
0.000318 0.000739 0.000000
0.000328 0.000747 0.000000
0.000343 0.000770 0.000000
0.000357 0.000771 0.000000
0.000354 0.000779 0.000000
0.000364 0.000782 0.000000
0.000371 0.000789 0.000000
0.000380 0.000796 0.000000
0.000395 0.000805 0.000000
0.000040 0.000300 0.000000
0.000040 0.000310 0.000000
0.000040 0.000320 0.000000
0.000040 0.000329 0.000000
0.000040 0.000340 0.000000
0.000040 0.000351 0.000000
0.000041 0.000360 0.000000
0.000041 0.000369 0.000000
0.000041 0.000380 0.000000
0.000039 0.000390 0.000000
0.000042 0.000399 0.000000
0.000041 0.000410 0.000000
0.000042 0.000420 0.000000
0.000040 0.000431 0.000000
0.000042 0.000439 0.000000
0.000043 0.000450 0.000000
0.000043 0.000460 0.000000
0.000037 0.000470 0.000000
0.000045 0.000478 0.000000
0.000043 0.000496 0.000000
0.000040 0.000498 0.000000
0.000279 0.000540 0.000000
0.000330 0.000737 0.000000
0.000338 0.000751 0.000000
0.000345 0.000753 0.000000
0.000350 0.000763 0.000000
0.000367 0.000769 0.000000
0.000380 0.000785 0.000000
0.000389 0.000787 0.000000
0.000390 0.000796 0.000000
0.000401 0.000798 0.000000
0.000050 0.000300 0.000000
0.000050 0.000310 0.000000
0.000050 0.000319 0.000000
0.000049 0.000331 0.000000
0.000052 0.000340 0.000000
0.000050 0.000349 0.000000
0.000052 0.000360 0.000000
0.000049 0.000371 0.000000
0.000053 0.000379 0.000000
0.000050 0.000390 0.000000
0.000053 0.000400 0.000000
0.000049 0.000410 0.000000
0.000054 0.000420 0.000000
0.000050 0.000430 0.000000
0.000054 0.000440 0.000000
0.000047 0.000451 0.000000
0.000055 0.000459 0.000000
0.000053 0.000470 0.000000
0.000056 0.000483 0.000000
0.000049 0.000488 0.000000
0.000050 0.000498 0.000000
0.000306 0.000735 0.000000
0.000291 0.000694 0.000000
0.000340 0.000742 0.000000
0.000355 0.000753 0.000000
0.000362 0.000762 0.000000
0.000373 0.000777 0.000000
0.000376 0.000767 0.000000
0.000382 0.000774 0.000000
0.000397 0.000786 0.000000
0.000407 0.000789 0.000000
0.000060 0.000300 0.000000
0.000060 0.000310 0.000000
0.000061 0.000321 0.000000
0.000060 0.000329 0.000000
0.000061 0.000339 0.000000
0.000059 0.000351 0.000000
0.000062 0.000360 0.000000
0.000060 0.000369 0.000000
0.000063 0.000381 0.000000
0.000058 0.000390 0.000000
0.000064 0.000399 0.000000
0.000059 0.000409 0.000000
0.000064 0.000419 0.000000
0.000058 0.000431 0.000000
0.000066 0.000440 0.000000
0.000060 0.000449 0.000000
0.000066 0.000460 0.000000
0.000055 0.000471 0.000000
0.000064 0.000475 0.000000
0.000068 0.000486 0.000000
0.000059 0.000496 0.000000
0.000302 0.000729 0.000000
0.000319 0.000731 0.000000
0.000344 0.000736 0.000000
0.000353 0.000743 0.000000
0.000363 0.000751 0.000000
0.000376 0.000758 0.000000
0.000393 0.000768 0.000000
0.000392 0.000774 0.000000
0.000403 0.000778 0.000000
0.000412 0.000781 0.000000
0.000070 0.000300 0.000000
0.000070 0.000310 0.000000
0.000070 0.000319 0.000000
0.000070 0.000330 0.000000
0.000072 0.000342 0.000000
0.000069 0.000349 0.000000
0.000072 0.000359 0.000000
0.000068 0.000371 0.000000
0.000073 0.000378 0.000000
0.000070 0.000390 0.000000
0.000074 0.000401 0.000000
0.000068 0.000411 0.000000
0.000075 0.000422 0.000000
0.000067 0.000429 0.000000
0.000075 0.000438 0.000000
0.000066 0.000452 0.000000
0.000077 0.000459 0.000000
0.000073 0.000470 0.000000
0.000076 0.000486 0.000000
0.000068 0.000496 0.000000
0.000076 0.000496 0.000000
0.000279 0.000526 0.000000
0.000315 0.000722 0.000000
0.000334 0.000729 0.000000
0.000361 0.000737 0.000000
0.000370 0.000748 0.000000
0.000382 0.000751 0.000000
0.000387 0.000760 0.000000
0.000398 0.000760 0.000000
0.000408 0.000770 0.000000
0.000418 0.000773 0.000000
0.000080 0.000300 0.000000
0.000080 0.000310 0.000000
0.000080 0.000320 0.000000
0.000081 0.000330 0.000000
0.000080 0.000339 0.000000
0.000081 0.000350 0.000000
0.000080 0.000361 0.000000
0.000080 0.000369 0.000000
0.000082 0.000382 0.000000
0.000078 0.000390 0.000000
0.000084 0.000398 0.000000
0.000079 0.000409 0.000000
0.000083 0.000417 0.000000
0.000079 0.000431 0.000000
0.000087 0.000446 0.000000
0.000077 0.000447 0.000000
0.000086 0.000463 0.000000
0.000075 0.000470 0.000000
0.000087 0.000473 0.000000
0.000086 0.000483 0.000000
0.000084 0.000495 0.000000
0.000297 0.000719 0.000000
0.000284 0.000692 0.000000
0.000347 0.000728 0.000000
0.000357 0.000732 0.000000
0.000371 0.000739 0.000000
0.000384 0.000743 0.000000
0.000393 0.000748 0.000000
0.000405 0.000758 0.000000
0.000413 0.000762 0.000000
0.000423 0.000765 0.000000
0.000090 0.000300 0.000000
0.000090 0.000310 0.000000
0.000090 0.000320 0.000000
0.000090 0.000330 0.000000
0.000090 0.000340 0.000000
0.000091 0.000351 0.000000
0.000090 0.000360 0.000000
0.000091 0.000370 0.000000
0.000089 0.000379 0.000000
0.000092 0.000389 0.000000
0.000092 0.000403 0.000000
0.000091 0.000411 0.000000
0.000089 0.000424 0.000000
0.000097 0.000426 0.000000
0.000088 0.000435 0.000000
0.000097 0.000456 0.000000
0.000087 0.000453 0.000000
0.000098 0.000471 0.000000
0.000106 0.000480 0.000000
0.000089 0.000495 0.000000
0.000095 0.000495 0.000000
0.000280 0.000554 0.000000
0.000313 0.000716 0.000000
0.000303 0.000709 0.000000
0.000328 0.000725 0.000000
0.000372 0.000729 0.000000
0.000384 0.000735 0.000000
0.000399 0.000746 0.000000
0.000408 0.000748 0.000000
0.000418 0.000753 0.000000
0.000428 0.000756 0.000000
0.000100 0.000300 0.000000
0.000100 0.000310 0.000000
0.000100 0.000320 0.000000
0.000100 0.000331 0.000000
0.000100 0.000340 0.000000
0.000100 0.000349 0.000000
0.000101 0.000359 0.000000
0.000101 0.000371 0.000000
0.000100 0.000380 0.000000
0.000102 0.000391 0.000000
0.000098 0.000399 0.000000
0.000103 0.000408 0.000000
0.000101 0.000417 0.000000
0.000099 0.000436 0.000000
0.000109 0.000443 0.000000
0.000097 0.000445 0.000000
0.000107 0.000460 0.000000
0.000098 0.000467 0.000000
0.000094 0.000481 0.000000
0.000107 0.000491 0.000000
0.000101 0.000494 0.000000
0.000280 0.000646 0.000000
0.000280 0.000653 0.000000
0.000284 0.000686 0.000000
0.000363 0.000724 0.000000
0.000377 0.000727 0.000000
0.000391 0.000730 0.000000
0.000401 0.000737 0.000000
0.000409 0.000736 0.000000
0.000420 0.000746 0.000000
0.000432 0.000747 0.000000
0.000110 0.000300 0.000000
0.000110 0.000310 0.000000
0.000110 0.000321 0.000000
0.000110 0.000330 0.000000
0.000110 0.000340 0.000000
0.000111 0.000351 0.000000
0.000111 0.000361 0.000000
0.000110 0.000368 0.000000
0.000111 0.000379 0.000000
0.000110 0.000390 0.000000
0.000112 0.000400 0.000000
0.000111 0.000413 0.000000
0.000115 0.000422 0.000000
0.000106 0.000427 0.000000
0.000113 0.000433 0.000000
0.000107 0.000450 0.000000
0.000116 0.000461 0.000000
0.000111 0.000471 0.000000
0.000116 0.000480 0.000000
0.000111 0.000493 0.000000
0.000119 0.000492 0.000000
0.000280 0.000590 0.000000
0.000279 0.000573 0.000000
0.000313 0.000706 0.000000
0.000337 0.000719 0.000000
0.000335 0.000711 0.000000
[...]
POINT_DATA 6231
SCALARS density float 1
LOOKUP_TABLE default
4400.533465
4424.034276
4419.570648
4422.597811
4426.409777
4425.477785
4425.446474
4425.778111
4427.228224
4427.784104
4424.331309
4428.254097
4429.411756
4429.979826
4430.383807
4440.623311
4422.600643
4432.016116
4412.774367
4423.432829
4411.430343
4542.884376
4428.211752
4436.016622
4440.585846
4437.613463
4403.880447
4436.509694
4434.979191
4451.679449
4417.077118
4405.290231
4421.176738
4422.638507
4426.357453
4420.915841
4425.008789
4425.252453
4419.819115
4428.573748
4433.464215
4429.117205
4433.705719
4425.850477
4436.012339
4415.192412
4428.252186
4409.817218
4443.646213
4460.717971
4460.268600
4415.675338
4394.299248
4390.695665
4402.731694
4455.783165
4387.082374
4404.053602
4418.126501
4414.339090
4433.522114
4462.302366
4414.787240
4429.459525
4420.950008
4423.934600
4422.281704
4426.526857
4428.273167
4439.365946
4424.021894
4417.741986
4427.282947
4430.472889
4413.615031
4442.774618
4415.539614
4475.572870
4399.261189
4453.527927
4352.765833
4449.833105
4420.083149
4416.600359
4397.790674
4395.392182
4512.928003
4345.360316
4424.930651
4461.042004
4408.590724
4432.817343
4398.266234
4419.465058
4419.925892
4420.660964
4424.990532
4433.794550
4433.175796
4415.313184
4423.071758
4417.685334
4451.270063
4412.691630
4439.653762
4423.933643
4443.267690
4401.777410
4432.108502
4389.756847
4457.570923
4369.565824
4555.948498
4370.148715
4431.373203
4519.312061
4466.538317
4453.180727
4379.887287
4489.600601
4415.913497
4414.682882
4508.595488
4448.507343
4425.844202
4426.677474
4439.487086
4433.156853
4415.891505
4424.544494
4432.466645
4443.312450
4413.592473
4439.171560
4397.538893
4450.464033
4396.874047
4443.530998
4415.887256
4449.344507
4387.163271
4507.823709
4310.810363
4420.002037
4384.150123
4580.873462
4367.799195
4389.530596
4471.428100
4463.975819
4429.006363
4381.156876
4435.624055
4372.004898
4420.702314
4435.241208
4422.016836
4415.446652
4419.572036
4438.577045
4440.574515
4405.454177
4433.095054
4418.100252
4438.660779
4430.903521
4445.164423
4398.463256
4464.610095
4358.810168
4477.935787
4357.717311
4479.531553
4362.814590
4535.216720
4383.407766
4437.367358
4420.336174
4483.279639
4430.859685
4415.343230
4460.987624
4427.601478
4400.329710
4449.856015
4416.260087
4422.980261
4426.716334
4440.785481
4440.119441
4414.342331
4426.034419
4436.071010
4438.447308
4416.536133
4439.978669
4404.381830
4436.611385
4430.624460
4446.706331
4421.058774
4476.375085
4403.196673
4516.853035
4369.833966
4483.289903
4431.429073
4418.471895
4363.458711
4430.880862
4406.565715
4438.713727
4435.275137
4456.554398
4438.087845
4401.183834
4451.800388
4422.012450
4429.850836
4423.128130
4410.037407
4446.352759
4429.372049
4421.328942
4432.702318
4415.516236
4433.796432
4432.849544
4425.114341
4420.068038
4421.132309
4448.323075
4457.171879
4441.826770
4463.428791
4446.040934
4411.884001
4386.329888
4554.436708
4462.199450
4456.199054
4460.880265
4430.437098
4458.549812
4397.208207
4448.519454
4396.342755
4420.238995
4426.512188
4430.357675
4414.772655
4440.219420
4437.050503
4408.279098
4449.247565
4418.350869
4442.550141
4438.561171
4392.003906
4423.328191
4423.247437
4443.484876
4466.935253
4390.083113
4455.643554
4451.158305
4351.079050
4472.007342
4411.628240
4426.214768
4414.373770
4398.755354
4446.615890
4402.274004
4422.580322
4435.304551
4449.600299
4440.270198
4427.262309
4425.273462
4433.588165
4434.772252
4425.231309
4404.259538
4443.987037
4433.083683
4415.390422
4445.154796
4409.248052
4449.642531
4417.145943
4415.657170
4462.840534
4409.098970
4381.343511
4440.130529
4438.864504
4427.404753
4426.039936
4412.631818
4530.307709
4449.671914
4425.550526
4467.620731
4444.919783
4430.174546
4454.344837
4394.001314
4424.023429
4426.856992
4431.771045
4427.738353
4419.518307
4428.813573
4444.300817
4436.886447
4407.972724
4436.802389
4423.022243
4416.969257
4449.960367
4413.487773
4414.587922
4395.541777
4436.939518
4446.818071
4412.079032
4471.211620
4421.270031
4436.629175
4417.047291
4437.367871
4435.701936
4416.921435
4385.604636
4449.219043
4446.632919
4434.373672
4459.137608
4436.154057
4409.817233
4432.371821
4425.267942
4439.482449
4432.737230
4412.146023
4411.358413
4449.562825
4441.751665
4412.186578
4443.212942
4405.561330
4453.188132
4398.858130
4452.205061
4407.366365
4449.195798
4472.350213
4384.848335
4463.678738
4401.939004
4413.988127
4539.700017
4576.758756
4417.752250
4401.345367
4446.366332
4420.858542
4456.278910
4454.666863
4411.397485
4437.014629
4433.290205
4421.208614
4430.457522
4415.419311
4438.079088
4447.047942
4405.699493
4408.720035
4440.873712
4436.631907
4409.140804
4442.828577
4423.711937
4451.277168
4432.296318
4370.262471
4428.662089
4393.570212
4418.061077
4438.725486
4394.609883
4457.507251
4425.836341
4428.276505
4448.966962
4444.076590
4383.964999
4400.214722
4405.825514
4411.838655
4409.846399
4428.552515
4434.253799
4428.688772
4430.501742
4423.577510
4410.410159
4435.718769
4445.775193
4425.877695
4394.696456
4447.244547
4407.898272
4443.355892
4416.613723
4398.722144
4433.210581
4417.386476
4447.331223
4494.652042
4421.234367
4450.761534
4504.144216
4412.396294
4422.014083
4424.944006
4414.960395
4435.668426
4444.136413
4462.685830
4465.655358
4413.046792
4428.938505
4437.690808
4429.026604
4416.387250
4421.402995
4434.565795
4433.397926
4402.342573
4431.524995
4431.465054
4441.029765
4400.428279
4432.506329
4404.979045
4447.198414
4383.411857
4418.959427
4498.211992
4574.338213
4387.614212
4371.797476
4406.213772
4376.607486
4479.656587
4464.316734
4379.612645
4481.793671
4459.203908
4416.397804
4426.558137
4438.534331
4426.711275
4428.629935
4424.044749
4442.101156
4431.435876
4406.195931
4418.823549
4443.817606
4435.275610
4394.447215
4426.180761
4428.608461
4434.777514
4385.023244
4456.279019
4409.705439
4483.789240
4352.118473
4331.365102
4507.235569
4397.830087
4419.667717
4427.545257
4396.122960
4466.072991
4386.583734
4454.326227
4397.199607
4410.687984
4423.356905
4412.378662
4425.436077
4438.835904
4430.114752
4415.076644
4424.595887
4440.871714
4436.089330
4402.384390
4416.082532
4442.169184
4437.387853
4390.920298
4444.523950
4419.132277
4430.674184
4419.593892
4415.181262
4496.018284
4483.936332
4425.284287
4407.081506
4438.338501
4450.289758
4440.469170
4418.376777
4420.580200
4423.797848
4443.072815
4423.381363
4436.440850
4419.541032
4434.466880
4429.162445
4418.411834
4440.395778
4432.556199
4416.626352
4418.438496
4436.371561
4439.292343
4401.931121
4418.666927
4450.645100
4414.710240
4437.838122
4389.888920
4448.209839
4399.054384
4469.426837
4330.807131
4360.345368
4433.102278
4399.192764
4429.851589
4459.955366
4381.724976
4462.346528
4449.500225
4432.354675
4447.395183
4419.153101
4421.572482
4428.777688
4425.560175
4431.422425
4446.198369
4410.148071
4434.059036
4436.774148
4419.037169
4411.952637
4447.238607
4422.929243
4414.625785
4409.448583
4447.081320
4401.423820
4449.580599
4332.011004
4474.626515
4389.168696
4452.989783
4403.118832
4414.738253
4382.830781
4465.451459
4483.027857
4393.056713
4441.245888
4457.787169
4417.519634
4424.809793
4414.358734
4426.859483
4430.204146
4429.088477
4409.457653
4431.178407
4448.851512
4396.023468
4439.099075
4423.238296
4431.108278
4397.707051
4453.572025
4407.781322
4427.936719
4401.364585
4444.020215
4457.914054
4481.480428
4430.509668
4550.180294
4388.764364
4442.091066
4488.272625
4412.087306
4405.792665
4363.390904
4425.413630
4418.890185
4440.242022
4433.745490
4399.038421
4423.192224
4423.701904
4424.050673
4437.773543
4433.824016
4413.492157
4427.234534
4451.291748
4386.899180
4439.438950
4425.135587
4441.522488
4386.384856
4445.338913
4435.501628
4403.856723
4402.422769
4458.477391
4367.354221
4400.567795
4627.734599
4413.785890
4476.070614
4458.065278
4417.419663
4422.698630
4432.820739
4432.689868
4464.541835
4399.026824
4398.961748
4419.522094
4443.145854
4428.348151
4422.541551
4409.034427
4432.781739
4442.130491
4401.378360
4431.188540
4444.439573
4407.073654
4410.873843
4456.731187
4410.087782
4409.928364
4472.148895
4399.704848
4471.079432
4407.910695
4479.284281
4409.136760
4440.564884
4446.791896
4425.497066
4422.704351
4429.174236
4452.917013
4446.723307
4371.607376
4417.750103
4454.191854
4431.955883
4427.337889
4408.122000
4435.873831
4440.436312
4414.633094
4407.698124
4428.385688
4447.083707
4379.492763
4447.468007
4438.018242
4414.460286
4438.417819
4416.415973
4414.411701
4402.616153
4451.150430
4402.267875
4450.490342
4425.257962
4426.039354
4436.118300
4480.391538
4444.508276
4440.338464
4452.613678
4402.652426
4493.120284
4405.078912
4424.787600
4424.587360
4420.212728
4441.502599
4438.407963
4403.280288
4430.706668
4434.941959
4416.497958
4417.467616
4427.482699
4434.896347
4398.863535
4408.193996
4442.370108
4417.423636
4423.211531
4440.327118
4410.011937
4422.206831
4421.471352
4422.675901
4431.732919
4477.240004
4454.341246
4454.319230
4460.835409
4431.253609
4442.007738
4425.205438
4433.810266
4428.122578
4422.286057
4429.838571
4429.929936
4404.601971
4440.757700
4440.016767
4403.313054
4425.228210
4413.241004
4442.625261
4397.281508
4432.326217
4448.179182
4398.344015
4416.509353
4450.009486
4392.047782
4420.676775
4466.645813
4542.822092
4406.132868
4453.786301
4453.276756
4439.480901
4439.895918
4436.629265
4443.176238
4436.988945
4411.470671
4422.911002
4451.819169
4424.477384
4427.620132
4416.055574
4439.712163
4442.839526
4401.209238
4423.049471
4446.905448
4411.323283
4415.313592
4419.757350
4419.877228
4386.002457
4450.744961
4431.447555
4432.750762
4405.389805
4450.970050
4364.786289
4421.698777
4423.687805
4385.321052
4482.733275
4439.824688
4440.516861
4430.246282
4472.030332
4452.112585
4453.274904
4424.157397
4412.469831
4422.474458
4441.925682
4428.884441
4428.033880
4395.738455
4449.300447
4447.745513
4392.111475
4422.156597
4434.455360
4414.534936
4422.615540
4424.867820
4402.928525
4373.481753
4435.612201
4426.135839
4465.092895
4374.130339
4427.950896
4437.834586
4550.127363
4457.047725
4455.559455
4464.949509
4463.845058
4424.147276
4410.347893
4454.173964
4398.598008
4428.065514
4433.173412
4427.566481
4411.077593
4433.702831
4440.325028
4426.144644
4397.819575
4447.974984
4434.129403
4409.547328
4406.131240
4424.172569
4425.447634
4424.968123
4418.625607
4445.741280
4394.138941
4414.130168
4445.303884
4452.551594
4412.751525
4385.341900
4474.418874
4444.453039
4455.199192
4430.113855
4435.758212
4458.055480
4453.188491
4433.709496
4418.053159
4427.944050
4421.015766
4444.104736
4434.969195
4410.147133
4418.300868
4431.139722
4439.312348
4391.565969
4440.565167
4426.271938
4406.714716
4403.756002
4427.189811
4407.574326
4389.144938
4440.062450
4420.264458
4422.134000
4448.519724
4511.227867
4488.364925
4479.484956
4458.129892
4451.342230
4430.563625
4454.382598
4394.135759
4417.849284
4452.526326
4407.373054
4420.789355
4427.139809
4431.922437
4410.622603
4436.185529
4445.916142
4413.026642
4399.137255
4434.424249
4442.138404
4396.725665
4434.149076
4420.609964
4408.433837
4441.912796
4429.824940
4436.755224
4438.168168
4409.482941
4431.640341
4478.948908
4435.914259
4417.457410
4471.435593
4462.297167
4426.215884
4435.516834
4466.084570
4439.619454
4428.651116
4418.735088
4425.729601
4433.658693
4417.114747
4442.707661
4442.868009
4390.434897
4435.020663
4434.323351
4415.519435
4401.467077
4437.251414
4426.094617
4410.059558
4406.657046
4413.902909
4415.626161
4418.226984
4431.423081
4436.829375
4436.943934
4438.735640
4473.720094
4430.987525
4472.317655
4466.636210
4442.947618
4446.180626
4457.468820
4430.524742
4434.025487
4407.605785
4424.682054
4431.779941
4432.873125
4424.389335
4413.333464
4446.364611
4440.200018
4401.676671
4426.343334
4421.604933
4433.837990
4392.883814
4432.896150
4445.349386
4417.207348
4421.564106
4428.851781
4425.671186
4430.576734
4435.444502
4436.083948
4454.335344
4436.504567
4445.545315
4454.195506
4439.415038
4439.250144
4417.395371
4391.278488
4428.719163
4441.312224
4435.266217
4426.780555
4427.519151
4427.885181
4433.856066
4434.993824
4399.545361
4434.928851
4433.207298
4416.038257
4418.464862
4427.095504
4432.936172
4388.037667
4396.875272
4410.893555
4436.468004
4414.986425
4430.750735
4425.770379
4433.028428
4433.871330
4434.092443
4461.669754
4454.295617
4438.186274
4411.988867
4471.107852
4463.677366
4416.650531
4424.898748
4438.440419
4420.631559
4441.551425
4431.052446
4425.845292
4406.760833
4440.804733
4445.434429
4404.537641
4428.322929
4431.196263
4420.860965
4413.998955
4435.879474
4431.381450
4432.825542
4410.116623
4426.630420
4421.222905
4445.361205
4427.443599
4433.061728
4466.229556
4429.931008
4422.539110
4467.412850
4426.394500
4447.673547
4484.771582
4356.082315
4406.208870
4429.594636
4432.449636
4438.909494
4406.768655
4442.850461
4442.861437
4411.178114
4398.941893
4435.316544
4437.464091
4405.608207
4437.467726
4405.307136
4426.405668
4395.969311
4408.811381
4439.924425
4429.580140
4417.675938
4423.725505
4446.966800
4431.264135
4430.897824
4454.871835
4449.941725
4432.844975
4464.143712
4461.613456
4461.760379
4457.993201
4412.078445
4438.457505
4434.392338
4420.820212
4448.025096
4426.196968
4414.256768
4441.622508
4445.561072
4414.240498
4428.830255
4411.967300
4443.237930
4425.206053
4434.051526
4431.825172
4433.420577
4404.250328
4431.793503
4431.000935
4426.744467
4437.418414
4446.791372
4435.342103
4445.425476
4429.271226
4438.435671
4443.841600
4410.678914
4414.180844
4474.869317
4419.202790
4426.552461
4426.421930
4435.784829
4441.169653
4403.610573
4454.044127
4428.802779
4406.390104
4427.196645
4421.657605
4436.101842
4417.691072
4423.608452
4425.888962
4405.046448
4426.987413
4423.305015
4443.371139
4415.285795
4419.067080
4424.163791
4443.339926
4427.989714
4414.061192
4448.582947
4438.605096
4425.688029
4457.097269
4471.513175
4443.197281
4484.150614
4423.673378
4423.017502
4444.398782
4414.632976
4427.407971
4430.844076
4398.116569
4443.966799
4440.102628
4423.474205
4434.436043
4444.341321
4404.746338
4433.408652
4435.091495
4424.985726
4421.462872
4408.948705
4450.950371
4434.553508
4432.925578
4422.897858
4444.266536
4453.579136
4436.013587
4449.983936
4451.395705
4429.553320
4448.109202
4451.031083
4456.815897
4430.659370
4425.832199
4414.225308
4427.799150
4449.009080
4413.586638
4441.104458
4439.812992
4398.526005
4445.008615
4398.829779
4429.895252
4440.815063
4417.783668
4418.336416
4437.746848
4420.191545
4420.091586
4440.856357
4406.822661
4444.276280
4436.524694
4442.898365
4437.343682
4419.102605
4433.695865
4444.760382
4450.151896
4464.609135
4446.039299
4454.493348
4426.844386
4426.666147
4435.541587
4437.557560
4407.550870
4427.753151
4438.176206
4402.240267
4452.476984
4444.553504
4419.742089
4449.350078
4417.610670
4438.665305
4418.134522
4417.484268
4418.761245
4435.606197
4422.663695
4423.455064
4430.359086
4401.100384
4442.232668
4422.929389
4445.587585
4454.937278
4441.173879
4433.926567
4439.804562
4451.627129
4455.357253
4427.595202
4433.489538
4411.376103
4426.895613
4439.235449
4436.514259
4403.309646
4431.262574
4441.182647
4400.406880
4428.736139
4393.351417
4407.048977
4417.691136
4451.457411
4419.515265
4431.009362
4419.123191
4428.363106
4423.875700
4403.664739
4438.582601
4437.529455
4436.784159
4438.005894
4421.982720
4464.368437
4455.824838
4466.696298
4460.593230
4460.171808
4425.605886
4435.618417
4432.687150
4440.513983
4432.837594
4434.790261
4441.293522
4431.593174
4407.587041
4452.370881
4470.117201
4401.972204
4458.915922
4464.627014
4395.664405
4448.178902
4425.097540
4411.810480
4445.864754
4435.663247
4427.644166
4438.787298
4414.672511
4455.379640
4432.264488
4452.212941
4456.779636
4437.542930
4465.670299
4452.473798
4461.113718
4429.571379
4429.703029
4414.380807
4423.257946
4389.599278
4449.254914
4437.771550
4415.928072
4434.143256
4421.543421
4386.918383
4443.299323
4436.556532
4406.062518
4436.162402
4378.873200
4432.054065
4436.145791
4441.651749
4434.587656
4442.477444
4403.256800
4449.319758
4429.294865
4437.616692
4442.535065
4443.832561
4460.811506
4457.179625
4457.043793
4459.156617
4428.897748
4424.820827
4436.574554
4438.046427
4428.402803
4423.411990
4422.155216
4455.556950
4412.911074
4446.381767
4447.520809
4441.507762
4389.866142
4431.810169
4423.591289
4465.265515
4426.798330
4405.991471
4444.814819
4399.751550
4435.921921
4448.265770
4436.376571
4440.785664
4456.214678
4441.589574
4467.571771
4453.687280
4456.851941
4453.776188
4456.727229
4424.415379
4421.578584
4431.568857
4407.404781
4422.139109
4422.957029
4426.569425
4430.829614
4449.998681
4408.537524
4426.847456
4387.710236
4440.293007
4441.078612
4415.682857
4440.322934
4407.099576
4445.779794
4458.716121
4393.559547
4445.642650
4411.337130
4436.773299
4427.666279
4440.081674
4438.578153
4465.269351
4459.012716
4456.047653
4454.051047
4456.346606
4428.382131
4437.406445
4425.526122
4430.546652
4450.241616
4443.112663
4446.982056
4414.365683
4425.175908
4439.034294
4461.336074
4452.633689
4421.309003
4417.583244
4407.763054
4482.160549
4434.251757
4443.744998
4407.199262
4453.557687
4449.578008
4422.677665
4468.936281
4417.213138
4457.642836
4455.058839
4433.066539
4471.276534
4460.732341
4444.610900
4455.385425
4431.165172
4431.243291
4415.511191
4424.461337
4401.116417
4446.709924
4428.329631
4413.622588
4415.279217
4436.228938
4396.462821
4398.330139
4461.514661
4432.085443
4397.771139
4418.561906
4443.807782
4434.196384
4450.276480
4423.054141
4407.008115
4436.794360
4445.415323
4396.697280
4464.992338
4418.774228
4464.714491
4448.067880
4452.197145
4456.012617
4452.257143
4433.989893
4426.068983
4441.779753
4445.057122
4426.929183
4436.774903
4426.553471
4418.189323
4449.944998
4424.755026
4451.012683
4433.585588
4417.467739
4409.399838
4446.275000
4444.250855
4426.425635
4418.707930
4424.138794
4439.340629
4451.225434
4418.954972
4418.449474
4470.505716
4436.653341
4417.458286
4438.486510
4440.884063
4462.359479
4455.832604
4450.354404
4426.526564
4423.328162
4437.980985
4400.542575
4448.502031
4426.974565
4421.934853
4450.201587
4422.039303
4425.946306
4407.181329
4424.642204
4433.877729
4448.667632
4404.289948
4432.180191
4457.288834
4442.759656
4415.642982
4441.774548
4438.741430
4450.043213
4438.452146
4455.717462
4400.899226
4471.280727
4421.780141
4451.203865
4445.975497
4448.823528
4449.848807
4434.985909
4438.179881
4434.228608
4439.989520
4454.015243
4418.996344
4434.472294
4406.491161
4438.782400
4450.389045
4426.753136
4439.804413
4434.742033
4426.326213
4450.576836
4434.174675
4431.432245
4438.284006
4433.413161
4422.601912
4455.528905
4451.306347
4424.065973
4446.432001
4459.807921
4451.766073
4436.230576
4438.958498
4457.601084
4461.726087
4451.184090
4431.676096
4432.086182
4409.172381
4438.027959
4397.654989
4442.255740
4439.150547
4441.180079
4430.613548
4416.028756
4420.479706
4447.233120
4411.503602
4439.419242
4437.812525
4417.841121
4436.849763
4438.707328
4447.475369
4418.399368
4441.238204
4421.960886
4434.010962
4457.341597
4429.300917
4433.393783
4453.639410
4440.145038
4448.058122
4437.611002
4449.737181
4428.485378
4434.088259
4440.714529
4424.523318
4449.865089
4416.635731
4435.590292
4387.010844
4435.886657
4446.997125
4442.356104
4435.862161
4442.184144
4406.483044
4412.016382
4439.785029
4443.022051
4425.367885
4433.181903
4433.963038
4444.883819
4457.306549
4447.141483
4439.067642
4457.555323
4449.802812
4437.080561
4437.786511
4456.344438
4453.526446
4450.568014
4448.036400
4428.537940
4435.737349
4424.414393
4414.226384
4454.553792
4430.983580
4461.657653
4429.395804
4407.227973
4418.639738
4426.466425
4455.985563
4438.128424
4445.079756
4422.745941
4435.168195
4438.131416
4442.105365
4439.837291
4438.501939
4434.892730
4415.575156
4434.800348
4425.210237
4449.278418
4437.239094
4439.816023
4439.588148
4451.040991
4447.091647
4434.669840
4430.105958
4433.880733
4448.000052
4427.368435
4422.449290
4422.588309
4452.855052
4410.383925
4459.945672
4442.334381
4434.319239
4413.523010
4457.338098
4409.891326
4454.249610
4444.660905
4434.828575