# vtk DataFile Version 2.0
mfree iwf
ASCII

DATASET UNSTRUCTURED_GRID
POINTS 6231 float
0.000000 0.000300 0.000000
0.000000 0.000310 0.000000
0.000000 0.000320 0.000000
0.000000 0.000330 0.000000
0.000001 0.000340 0.000000
0.000001 0.000350 0.000000
0.000001 0.000361 0.000000
0.000001 0.000371 0.000000
0.000001 0.000381 0.000000
0.000001 0.000391 0.000000
0.000001 0.000401 0.000000
0.000001 0.000411 0.000000
0.000001 0.000421 0.000000
0.000002 0.000431 0.000000
0.000002 0.000441 0.000000
0.000002 0.000451 0.000000
0.000002 0.000461 0.000000
0.000002 0.000471 0.000000
0.000002 0.000480 0.000000
0.000002 0.000492 0.000000
0.000006 0.000501 0.000000
0.000173 0.000548 0.000000
0.000173 0.000598 0.000000
0.000173 0.000564 0.000000
0.000173 0.000613 0.000000
0.000173 0.000635 0.000000
0.000175 0.000678 0.000000
0.000176 0.000681 0.000000
0.000182 0.000694 0.000000
0.000187 0.000707 0.000000
0.000202 0.000745 0.000000
0.000010 0.000300 0.000000
0.000010 0.000310 0.000000
0.000010 0.000320 0.000000
0.000010 0.000330 0.000000
0.000010 0.000340 0.000000
0.000011 0.000350 0.000000
0.000011 0.000360 0.000000
0.000011 0.000370 0.000000
0.000011 0.000380 0.000000
0.000011 0.000390 0.000000
0.000011 0.000400 0.000000
0.000011 0.000411 0.000000
0.000011 0.000420 0.000000
0.000012 0.000431 0.000000
0.000012 0.000440 0.000000
0.000012 0.000451 0.000000
0.000012 0.000460 0.000000
0.000012 0.000472 0.000000
0.000014 0.000478 0.000000
0.000010 0.000492 0.000000
0.000013 0.000498 0.000000
0.000177 0.000644 0.000000
0.000178 0.000656 0.000000
0.000180 0.000665 0.000000
0.000183 0.000673 0.000000
0.000190 0.000691 0.000000
0.000192 0.000700 0.000000
0.000197 0.000714 0.000000
0.000199 0.000724 0.000000
0.000200 0.000731 0.000000
0.000199 0.000738 0.000000
0.000020 0.000300 0.000000
0.000020 0.000310 0.000000
0.000020 0.000320 0.000000
0.000020 0.000330 0.000000
0.000021 0.000340 0.000000
0.000020 0.000350 0.000000
0.000021 0.000360 0.000000
0.000021 0.000370 0.000000
0.000021 0.000380 0.000000
0.000022 0.000391 0.000000
0.000021 0.000400 0.000000
0.000022 0.000411 0.000000
0.000021 0.000420 0.000000
0.000022 0.000431 0.000000
0.000021 0.000440 0.000000
0.000023 0.000451 0.000000
0.000021 0.000460 0.000000
0.000022 0.000470 0.000000
0.000022 0.000481 0.000000
0.000024 0.000494 0.000000
0.000020 0.000497 0.000000
0.000185 0.000613 0.000000
0.000183 0.000634 0.000000
0.000181 0.000649 0.000000
0.000185 0.000660 0.000000
0.000199 0.000671 0.000000
0.000193 0.000684 0.000000
0.000200 0.000704 0.000000
0.000201 0.000719 0.000000
0.000210 0.000729 0.000000
0.000213 0.000738 0.000000
0.000030 0.000300 0.000000
0.000030 0.000310 0.000000
0.000030 0.000320 0.000000
0.000030 0.000330 0.000000
0.000030 0.000340 0.000000
0.000031 0.000350 0.000000
0.000030 0.000360 0.000000
0.000031 0.000370 0.000000
0.000031 0.000380 0.000000
0.000031 0.000390 0.000000
0.000031 0.000400 0.000000
0.000031 0.000411 0.000000
0.000031 0.000420 0.000000
0.000032 0.000431 0.000000
0.000032 0.000440 0.000000
0.000031 0.000451 0.000000
0.000032 0.000459 0.000000
0.000037 0.000473 0.000000
0.000030 0.000478 0.000000
0.000033 0.000488 0.000000
0.000032 0.000498 0.000000
0.000063 0.000500 0.000000
0.000191 0.000642 0.000000
0.000190 0.000653 0.000000
0.000192 0.000676 0.000000
0.000207 0.000683 0.000000
0.000201 0.000690 0.000000
0.000208 0.000701 0.000000
0.000210 0.000709 0.000000
0.000214 0.000720 0.000000
0.000222 0.000734 0.000000
0.000040 0.000300 0.000000
0.000040 0.000310 0.000000
0.000040 0.000320 0.000000
0.000041 0.000331 0.000000
0.000040 0.000340 0.000000
0.000040 0.000350 0.000000
0.000041 0.000360 0.000000
0.000041 0.000370 0.000000
0.000041 0.000380 0.000000
0.000040 0.000390 0.000000
0.000042 0.000400 0.000000
0.000041 0.000410 0.000000
0.000043 0.000420 0.000000
0.000039 0.000430 0.000000
0.000043 0.000439 0.000000
0.000043 0.000450 0.000000
0.000043 0.000460 0.000000
0.000037 0.000470 0.000000
0.000045 0.000478 0.000000
0.000043 0.000497 0.000000
0.000040 0.000498 0.000000
0.000173 0.000520 0.000000
0.000199 0.000637 0.000000
0.000203 0.000653 0.000000
0.000202 0.000663 0.000000
0.000204 0.000673 0.000000
0.000212 0.000690 0.000000
0.000218 0.000707 0.000000
0.000225 0.000714 0.000000
0.000224 0.000723 0.000000
0.000230 0.000731 0.000000
0.000050 0.000300 0.000000
0.000050 0.000310 0.000000
0.000051 0.000320 0.000000
0.000050 0.000329 0.000000
0.000051 0.000340 0.000000
0.000050 0.000351 0.000000
0.000052 0.000360 0.000000
0.000049 0.000370 0.000000
0.000052 0.000380 0.000000
0.000050 0.000390 0.000000
0.000053 0.000399 0.000000
0.000049 0.000410 0.000000
0.000053 0.000419 0.000000
0.000051 0.000430 0.000000
0.000054 0.000441 0.000000
0.000047 0.000451 0.000000
0.000055 0.000459 0.000000
0.000053 0.000470 0.000000
0.000056 0.000482 0.000000
0.000049 0.000488 0.000000
0.000050 0.000498 0.000000
0.000179 0.000627 0.000000
0.000184 0.000593 0.000000
0.000204 0.000651 0.000000
0.000213 0.000667 0.000000
0.000217 0.000679 0.000000
0.000218 0.000692 0.000000
0.000227 0.000691 0.000000
0.000226 0.000703 0.000000
0.000233 0.000717 0.000000
0.000239 0.000726 0.000000
0.000060 0.000300 0.000000
0.000060 0.000310 0.000000
0.000061 0.000320 0.000000
0.000059 0.000331 0.000000
0.000062 0.000340 0.000000
0.000059 0.000350 0.000000
0.000062 0.000359 0.000000
0.000059 0.000370 0.000000
0.000063 0.000380 0.000000
0.000059 0.000390 0.000000
0.000063 0.000401 0.000000
0.000059 0.000410 0.000000
0.000064 0.000420 0.000000
0.000058 0.000431 0.000000
0.000065 0.000439 0.000000
0.000062 0.000449 0.000000
0.000066 0.000460 0.000000
0.000056 0.000472 0.000000
0.000065 0.000476 0.000000
0.000068 0.000486 0.000000
0.000059 0.000496 0.000000
0.000179 0.000620 0.000000
0.000193 0.000633 0.000000
0.000214 0.000649 0.000000
0.000218 0.000659 0.000000
0.000222 0.000671 0.000000
0.000226 0.000682 0.000000
0.000235 0.000698 0.000000
0.000238 0.000706 0.000000
0.000242 0.000714 0.000000
0.000248 0.000722 0.000000
0.000070 0.000300 0.000000
0.000070 0.000310 0.000000
0.000070 0.000320 0.000000
0.000071 0.000329 0.000000
0.000070 0.000340 0.000000
0.000070 0.000350 0.000000
0.000072 0.000361 0.000000
0.000069 0.000371 0.000000
0.000072 0.000380 0.000000
0.000070 0.000390 0.000000
0.000073 0.000400 0.000000
0.000069 0.000410 0.000000
0.000074 0.000420 0.000000
0.000069 0.000430 0.000000
0.000076 0.000439 0.000000
0.000065 0.000452 0.000000
0.000077 0.000459 0.000000
0.000073 0.000470 0.000000
0.000076 0.000486 0.000000
0.000068 0.000496 0.000000
0.000076 0.000496 0.000000
0.000173 0.000510 0.000000
0.000193 0.000623 0.000000
0.000207 0.000639 0.000000
0.000224 0.000658 0.000000
0.000231 0.000671 0.000000
0.000238 0.000681 0.000000
0.000239 0.000690 0.000000
0.000246 0.000697 0.000000
0.000251 0.000709 0.000000
0.000257 0.000718 0.000000
0.000080 0.000300 0.000000
0.000080 0.000310 0.000000
0.000080 0.000320 0.000000
0.000081 0.000331 0.000000
0.000079 0.000341 0.000000
0.000082 0.000350 0.000000
0.000079 0.000360 0.000000
0.000081 0.000369 0.000000
0.000082 0.000380 0.000000
0.000080 0.000391 0.000000
0.000083 0.000400 0.000000
0.000079 0.000410 0.000000
0.000083 0.000419 0.000000
0.000079 0.000431 0.000000
0.000083 0.000441 0.000000
0.000079 0.000450 0.000000
0.000085 0.000464 0.000000
0.000075 0.000470 0.000000
0.000087 0.000473 0.000000
0.000085 0.000483 0.000000
0.000084 0.000496 0.000000
0.000180 0.000606 0.000000
0.000173 0.000589 0.000000
0.000218 0.000642 0.000000
0.000228 0.000649 0.000000
0.000236 0.000664 0.000000
0.000241 0.000673 0.000000
0.000249 0.000682 0.000000
0.000254 0.000697 0.000000
0.000259 0.000705 0.000000
0.000266 0.000713 0.000000
0.000090 0.000300 0.000000
0.000090 0.000310 0.000000
0.000091 0.000320 0.000000
0.000090 0.000329 0.000000
0.000091 0.000339 0.000000
0.000090 0.000350 0.000000
0.000090 0.000361 0.000000
0.000092 0.000371 0.000000
0.000089 0.000380 0.000000
0.000092 0.000389 0.000000
0.000091 0.000400 0.000000
0.000091 0.000411 0.000000
0.000092 0.000422 0.000000
0.000092 0.000429 0.000000
0.000092 0.000439 0.000000
0.000095 0.000456 0.000000
0.000088 0.000453 0.000000
0.000097 0.000472 0.000000
0.000106 0.000480 0.000000
0.000089 0.000495 0.000000
0.000095 0.000495 0.000000
0.000173 0.000528 0.000000
0.000194 0.000615 0.000000
0.000189 0.000602 0.000000
0.000206 0.000626 0.000000
0.000238 0.000657 0.000000
0.000251 0.000671 0.000000
0.000254 0.000685 0.000000
0.000262 0.000690 0.000000
0.000268 0.000700 0.000000
0.000274 0.000708 0.000000
0.000100 0.000300 0.000000
0.000100 0.000310 0.000000
0.000100 0.000320 0.000000
0.000100 0.000330 0.000000
0.000102 0.000341 0.000000
0.000099 0.000350 0.000000
0.000102 0.000359 0.000000
0.000100 0.000369 0.000000
0.000101 0.000380 0.000000
0.000103 0.000391 0.000000
0.000100 0.000401 0.000000
0.000102 0.000409 0.000000
0.000102 0.000418 0.000000
0.000101 0.000432 0.000000
0.000105 0.000441 0.000000
0.000098 0.000447 0.000000
0.000106 0.000459 0.000000
0.000100 0.000466 0.000000
0.000095 0.000481 0.000000
0.000107 0.000491 0.000000
0.000101 0.000494 0.000000
0.000173 0.000569 0.000000
0.000173 0.000585 0.000000
0.000174 0.000582 0.000000
0.000236 0.000648 0.000000
0.000247 0.000657 0.000000
0.000252 0.000663 0.000000
0.000262 0.000674 0.000000
0.000269 0.000683 0.000000
0.000274 0.000695 0.000000
0.000282 0.000703 0.000000
0.000110 0.000300 0.000000
0.000110 0.000310 0.000000
0.000110 0.000320 0.000000
0.000111 0.000330 0.000000
0.000109 0.000339 0.000000
0.000111 0.000349 0.000000
0.000111 0.000362 0.000000
0.000110 0.000371 0.000000
0.000113 0.000379 0.000000
0.000108 0.000389 0.000000
0.000113 0.000399 0.000000
0.000111 0.000411 0.000000
0.000114 0.000423 0.000000
0.000108 0.000428 0.000000
0.000115 0.000439 0.000000
0.000109 0.000450 0.000000
0.000115 0.000462 0.000000
0.000112 0.000470 0.000000
0.000116 0.000480 0.000000
0.000111 0.000493 0.000000
0.000119 0.000492 0.000000
0.000175 0.000531 0.000000
0.000175 0.000536 0.000000
0.000200 0.000610 0.000000
0.000215 0.000633 0.000000
0.000216 0.000622 0.000000
[...]
POINT_DATA 6231
SCALARS density float 1
LOOKUP_TABLE default
4391.199028
4424.747810
4420.343392
4417.456439
4423.156379
4423.959528
4422.209106
4426.001241
4428.660897
4428.606925
4427.510181
4430.636129
4425.071341
4425.344470
4429.306216
4440.715436
4422.865056
4432.165537
4413.180941
4423.252248
4411.570979
4770.109987
4515.704534
4467.815541
4516.416863
4525.469342
4420.598088
4456.082237
4431.057422
4446.742890
4414.010031
4403.228181
4419.465675
4417.169285
4418.121993
4426.034528
4424.078548
4422.822704
4424.291055
4422.737740
4425.408550
4421.123099
4429.986414
4428.091154
4446.522305
4419.800398
4427.502862
4413.794010
4444.782813
4461.123254
4464.215831
4413.263416
4410.473632
4397.351451
4406.869889
4446.910163
4402.211591
4401.438989
4422.801171
4405.919858
4420.007195
4456.249835
4406.193051
4417.278342
4423.537575
4429.300509
4419.910124
4414.912345
4430.147271
4430.349521
4417.173693
4438.775272
4421.619087
4437.685396
4413.450441
4428.043348
4412.658074
4470.832291
4396.055104
4450.660316
4349.141322
4449.340373
4416.599051
4457.153694
4459.237157
4393.454655
4458.677821
4432.001206
4420.338196
4447.642680
4417.946445
4456.886774
4401.532390
4410.715063
4428.002494
4424.412320
4410.270235
4423.876209
4434.934008
4420.934352
4425.818999
4421.246716
4431.914796
4409.966461
4440.604116
4416.240993
4454.334501
4400.606664
4440.408106
4391.030617
4468.263253
4365.642650
4564.347698
4369.691535
4425.961643
4419.296014
4484.740416
4372.838009
4395.198697
4482.479255
4420.502467
4435.390078
4463.056269
4443.928152
4425.116515
4427.166643
4417.402523
4437.505181
4427.321666
4427.000048
4413.133057
4436.314219
4424.174470
4433.368463
4417.660298
4442.360943
4399.283622
4450.281448
4398.015505
4450.144665
4382.833836
4503.205248
4307.650157
4418.526679
4385.004952
4505.612030
4392.872487
4440.141231
4385.705635
4509.178693
4423.209931
4402.064923
4451.235896
4349.143131
4439.276529
4431.431622
4422.348974
4421.069872
4441.047085
4405.561606
4435.023976
4432.061916
4436.655415
4407.164684
4441.471825
4416.244611
4441.008544
4418.758164
4441.315025
4392.706770
4465.132198
4353.104264
4482.112794
4370.388090
4538.737682
4377.282280
4419.094556
4377.553908
4447.461301
4416.612721
4403.301477
4458.928714
4422.724882
4399.350982
4454.874405
4416.168519
4413.933521
4424.097710
4431.634942
4414.981402
4447.818291
4437.615589
4411.436382
4425.211062
4438.836731
4430.110683
4425.652354
4433.734196
4412.455913
4445.450960
4390.488710
4472.052951
4413.713907
4513.127507
4349.900371
4498.514084
4428.300876
4403.841680
4450.136328
4453.356245
4452.418050
4444.234106
4451.672341
4464.720753
4424.720736
4400.797261
4439.612959
4416.017350
4439.138616
4430.473083
4411.099996
4445.482876
4407.256636
4452.711579
4428.948438
4421.425026
4420.039365
4423.323504
4431.739295
4437.165564
4440.403706
4444.352234
4439.187530
4444.142641
4455.687844
4459.264871
4404.771348
4374.453437
4688.379061
4456.237936
4475.353244
4436.645440
4469.597178
4410.860029
4418.140875
4437.118417
4416.616025
4426.753478
4435.934978
4426.457089
4408.956749
4442.940657
4415.767070
4424.849182
4449.116742
4402.439187
4444.434159
4426.611019
4438.810057
4412.089419
4429.460220
4406.001821
4479.888514
4386.279559
4461.428896
4450.406606
4365.960490
4490.848125
4400.440032
4447.227945
4459.333297
4420.642377
4457.662649
4409.455106
4443.309667
4452.873698
4448.073973
4430.433400
4415.336018
4429.780584
4421.016869
4443.390779
4444.916831
4404.757768
4445.700812
4404.227845
4448.483597
4449.624159
4389.344919
4443.720150
4415.665973
4442.033045
4422.017564
4391.248126
4414.857491
4427.094976
4419.987503
4422.903523
4415.207009
4408.385296
4505.431459
4445.988331
4436.235818
4450.110720
4435.432710
4442.861987
4449.514248
4404.267514
4429.102275
4420.291186
4419.631437
4426.183053
4430.835623
4402.342809
4448.969561
4432.986827
4409.423281
4441.153185
4399.612746
4453.518878
4429.233237
4412.275154
4424.225246
4432.197805
4435.644757
4444.586445
4412.728809
4463.428975
4421.914056
4437.062080
4418.755637
4513.578831
4515.479914
4395.287255
4433.647865
4450.229548
4474.476638
4441.547706
4435.110425
4436.655756
4405.124420
4425.719480
4441.845666
4417.378640
4437.540246
4449.250538
4396.815104
4448.317155
4425.094134
4424.453759
4449.226676
4385.929624
4451.195000
4417.939215
4417.413939
4418.221034
4412.043187
4456.355500
4388.104769
4453.729066
4405.455871
4421.523437
4396.778117
4409.973155
4425.673641
4418.772584
4426.741169
4428.029395
4471.355727
4459.585719
4431.205829
4413.662965
4441.207034
4427.044037
4418.735108
4435.829172
4394.861546
4453.269563
4442.976476
4397.681185
4443.642471
4413.718268
4453.802273
4445.274687
4399.154821
4430.656730
4436.837820
4403.650879
4429.147021
4401.423608
4433.334137
4436.391460
4394.355349
4498.627331
4419.977057
4477.377538
4525.339639
4425.863195
4370.866394
4428.595069
4368.930796
4434.023676
4408.994201
4427.439800
4418.004657
4442.678131
4427.176288
4429.043320
4442.482869
4395.289401
4443.911133
4439.625104
4398.254324
4436.806519
4398.789990
4451.416756
4443.807159
4389.842189
4436.071462
4414.922809
4447.334417
4481.384839
4418.954437
4498.765064
4456.663160
4426.593493
4461.083808
4428.902083
4501.219458
4437.468586
4488.423907
4474.325026
4472.638213
4405.385476
4420.863375
4445.065441
4445.955924
4393.617641
4445.952093
4394.853478
4448.046340
4446.392694
4399.718838
4434.015644
4428.850621
4427.083476
4428.967343
4391.085367
4451.794913
4443.654509
4388.640382
4503.798474
4579.725568
4397.748480
4385.180091
4437.716897
4399.773781
4419.149859
4474.875330
4439.580356
4458.741943
4416.379611
4436.915826
4432.316129
4429.650324
4439.774213
4428.612468
4410.383704
4444.437233
4449.520838
4404.334833
4445.796144
4386.283744
4453.748454
4442.980438
4401.267782
4418.066941
4428.003461
4410.856769
4436.386680
4359.073783
4488.761083
4390.610409
4325.358623
4528.819557
4382.784268
4464.757790
4491.607580
4459.799626
4439.498090
4461.215756
4435.721767
4415.718445
4422.961803
4421.703750
4420.060440
4431.166245
4416.440612
4445.139587
4450.367157
4391.812562
4442.874890
4423.463451
4419.591250
4452.368102
4380.799769
4451.304059
4422.959071
4416.649218
4410.908446
4424.914402
4440.318525
4429.365330
4430.612165
4495.096440
4409.218692
4378.228692
4481.009775
4492.004133
4399.056784
4463.161646
4394.593101
4453.948981
4439.339453
4402.531712
4438.111133
4412.696677
4426.293198
4434.365766
4433.818369
4396.619135
4448.278892
4458.972866
4393.296394
4442.855488
4394.783808
4446.060462
4450.468579
4382.697432
4443.817532
4418.632452
4399.541996
4423.308639
4403.570208
4468.884669
4374.345601
4410.580133
4450.827054
4434.176759
4450.223364
4469.965207
4474.244467
4484.524639
4451.824403
4447.675948
4418.332405
4404.548654
4423.322544
4426.472228
4427.701316
4416.673707
4444.606964
4445.855996
4384.661784
4447.448050
4445.442973
4405.265308
4444.125095
4382.473571
4463.674168
4436.312666
4400.615488
4433.542108
4406.603588
4408.581042
4437.553970
4435.231060
4452.136557
4473.107576
4403.361611
4531.709480
4459.297318
4436.613647
4443.977921
4413.912613
4399.524476
4401.686723
4437.746222
4423.370731
4424.465838
4438.883677
4434.466709
4432.398961
4397.587664
4448.144569
4462.797483
4379.193911
4442.482388
4410.748849
4418.049970
4445.393531
4378.910415
4441.593087
4435.970413
4407.491598
4456.492261
4416.007285
4426.042473
4440.443554
4437.809633
4465.198653
4449.497252
4474.889003
4467.420772
4422.849475
4458.737585
4460.758930
4432.059293
4405.539360
4396.825305
4438.885898
4424.627125
4416.911107
4422.276216
4442.994611
4435.592693
4384.815487
4451.090888
4458.195512
4389.166831
4453.626762
4383.099382
4449.861159
4446.332786
4386.636543
4425.156920
4415.876944
4441.078434
4433.622711
4434.124927
4403.368239
4441.754496
4476.884386
4438.127510
4431.800592
4477.046606
4456.437843
4445.836192
4472.017564
4436.282517
4444.572837
4427.541622
4416.267054
4448.228611
4441.075152
4410.202876
4413.456738
4447.967348
4445.828771
4376.600412
4441.523329
4434.043123
4405.890279
4447.398592
4376.467426
4442.202005
4452.617310
4417.137255
4426.174471
4438.558637
4432.764754
4416.652131
4480.620829
4425.225633
4432.428160
4447.299023
4425.672551
4465.701736
4445.487834
4427.746540
4455.947740
4446.029216
4422.378796
4436.858528
4436.303306
4400.766812
4444.036623
4442.635063
4407.051070
4401.555239
4448.356541
4464.430366
4371.220443
4442.631340
4398.076329
4435.144586
4454.729729
4373.579716
4436.913473
4411.717538
4415.069535
4432.327634
4427.170596
4451.972573
4465.761402
4448.675156
4443.850212
4432.929149
4430.693686
4415.095016
4482.082710
4416.256639
4450.834405
4428.279472
4430.411393
4407.382678
4444.149115
4450.755873
4398.637510
4432.852825
4445.560284
4413.611891
4387.020474
4449.079494
4457.558000
4378.776465
4450.128237
4376.206431
4464.948608
4438.760211
4439.490669
4445.037232
4393.643760
4423.614238
4423.714225
4442.669802
4432.115580
4439.058940
4453.053324
4467.855240
4467.659634
4441.037035
4383.926694
4464.333747
4425.957949
4435.796348
4437.008316
4439.023716
4392.546850
4449.104984
4453.279369
4395.921923
4417.809167
4449.384012
4436.567892
4381.617743
4446.108988
4430.976410
4395.193058
4455.801259
4374.892240
4416.571668
4438.639243
4453.068297
4434.795208
4435.672972
4445.054779
4430.131790
4447.655880
4432.938608
4420.775678
4439.570041
4464.835501
4456.058129
4410.411251
4437.765658
4425.598655
4418.600852
4421.708559
4444.665219
4445.912790
4387.448711
4453.861226
4450.260173
4392.457629
4404.517925
4446.913514
4450.059667
4385.092281
4430.750381
4397.099710
4446.267132
4444.821696
4417.526191
4432.872659
4409.652847
4426.545261
4426.412892
4446.191967
4442.400690
4431.608977
4443.863475
4443.804904
4427.556009
4463.227988
4433.676414
4428.804104
4419.750259
4445.190305
4439.676972
4416.340890
4408.408508
4447.411850
4452.675147
4385.472386
4444.489600
4449.550334
4405.032656
4391.787373
4441.230564
4454.500860
4384.824164
4450.183106
4397.247064
4401.160699
4454.492308
4436.866212
4457.425411
4392.132699
4445.485385
4406.766417
4446.352286
4430.570058
4474.453696
4435.948298
4483.400060
4470.273910
4422.801657
4438.231711
4437.902949
4407.393672
4442.429110
4441.439026
4422.438234
4394.602096
4451.491769
4458.331886
4385.373491
4427.186482
4450.197472
4428.482589
4397.226842
4444.332706
4416.555626
4431.278696
4451.227385
4395.524635
4431.363901
4426.368617
4454.200015
4454.454671
4453.308181
4463.861826
4402.365229
4460.298225
4412.518656
4464.494697
4431.434912
4434.306668
4431.563784
4413.197383
4440.671714
4451.413817
4403.404593
4429.873127
4443.938177
4432.137424
4389.865201
4455.801383
4459.443270
4387.746717
4412.823645
4436.588154
4448.149782
4390.240091
4442.376832
4406.111946
4442.886755
4450.771376
4416.720002
4454.528408
4411.852760
4401.542691
4441.688491
4443.055859
4431.043943
4471.280181
4451.451704
4481.065628
4431.576228
4431.259184
4441.563657
4441.385178
4398.602965
4452.807109
4450.050016
4401.500704
4419.542866
4443.602417
4442.196436
4388.788521
4447.216769
4449.528536
4404.948972
4409.173692
4442.348116
4404.134132
4431.848366
4426.082840
4413.085007
4404.052628
4442.165672
4449.665857
4458.774286
4453.814668
4452.912292
4466.064619
4483.686608
4439.853217
4474.578379
4437.592507
4427.206250
4418.990409
4418.884987
4444.109836
4448.290821
4397.482758
4449.476260
4445.188220
4410.202201
4408.701614
4443.821693
4459.446205
4388.074152
4433.110580
4438.141528
4434.857783
4424.794660
4439.615491
4431.686256
4429.958720
4435.274198
4421.546396
4450.041961
4449.846990
4403.718852
4465.604842
4407.813072
4493.128243
4436.190250
4473.351696
4429.532336
4423.418083
4445.322313
4441.407094
4426.124390
4404.381300
4446.295517
4456.111976
4395.405766
4440.570002
4440.908009
4418.255474
4403.059709
4459.213029
4460.474269
4397.191932
4419.328529
4434.621741
4432.731811
4412.387696
4453.500805
4437.980227
4397.137518
4433.571148
4433.768574
4462.034775
4477.239815
4429.875606
4477.719113
4427.831495
4471.713095
4425.189760
4433.134386
4441.398684
4407.464017
4434.961446
4445.305740
4432.967392
4397.630938
4448.798025
4459.204681
4400.668056
4436.781008
4438.984929
4436.403336
4397.503055
4456.360744
4442.824937
4414.543735
4467.283316
4432.052801
4453.611565
4423.212125
4461.847247
4410.228352
4458.588965
4427.393796
4467.561393
4454.904921
4474.465023
4453.612398
4465.702736
4437.658820
4437.380230
4414.958324
4446.261236
4446.353142
4401.659531
4428.624915
4444.530336
4444.074886
4396.176264
4450.824623
4451.853109
4403.243258
4420.198028
4442.874301
4452.744407
4407.577095
4450.991244
4399.676196
4422.318393
4450.347242
4448.241893
4450.973811
4406.653562
4475.325312
4414.914563
4477.612028
4423.978138
4463.578548
4451.260521
4461.976361
4440.382812
4424.288975
4437.116564
4437.097353
4406.506908
4451.987026
4450.515225
4409.084223
4415.030118
4441.345050
4459.047115
4399.601830
4451.855917
4441.367313
4413.888936
4402.292397
4444.350928
4453.795671
4415.094627
4457.276041
4423.280939
4436.330923
4422.665830
4452.803336
4427.648042
4445.080137
4466.735110
4426.441433
4487.129750
4434.996450
4461.818723
4428.093488
4422.257444
4435.793770
4410.051497
4448.192767
4441.405550
4402.963379
4445.118148
4447.533117
4423.962400
4401.017058
4447.906454
4459.899999
4395.129588
4450.790896
4432.699856
4444.549720
4406.066452
4456.967846
4406.941821
4420.628572
4469.925223
4453.539327
4420.109787
4444.604172
4455.591972
4424.828441
4478.909333
4438.795651
4455.927313
4456.694245
4427.665019
4442.373923
4443.271464
4423.300159
4451.599908
4416.961894
4448.891433
4449.077432
4401.899358
4430.608611
4445.289479
4442.727908
4404.445420
4452.126765
4457.520625
4391.694138
4450.353508
4423.409955
4452.583908
4423.526696
4444.674293
4443.455329
4404.662483
4433.948662
4440.461011
4456.279372
4457.096035
4464.346992
4448.616415
4460.764868
4450.790337
4445.471233
4431.303319
4412.984377
4430.191363
4406.504823
4415.736324
4448.285150
4402.524795
4453.968007
4444.699676
4412.029437
4410.731730
4447.462860
4451.790964
4402.681688
4464.897581
4419.557133
4448.232483
4433.663614
4446.680389
4474.817773
4399.097967
4475.736967
4452.346508
4449.315308
4418.578383
4437.549974
4461.225187
4440.968546
4453.596321
4450.178692
4433.464978
4422.159007
4445.667915
4454.702287
4422.178856
4446.151440
4424.040071
4434.927494
4453.602668
4397.566255
4442.588976
4446.418070
4430.197765
4404.099705
4446.509065
4462.811411
4400.846594
4453.253683
4415.874272
4448.964836
4433.957183
4450.938530
4416.839469
4405.379450
4456.698022
4456.645163
4462.858353
4434.634361
4453.994499
4455.891612
4451.343676
4432.239660
4433.748628
4438.502316
4396.065073
4446.448493
4451.105143
4402.474786
4453.077596
4409.850207
4461.717688
4448.260193
4397.094978
4426.095749
4442.692138
4455.303975
4385.415831
4462.152630
4419.569593
4424.056792
4454.713485
4426.372221
4457.345226
4419.706962
4463.537308
4424.871299
4445.876910
4433.229699
4453.640049
4441.879802
4450.383880
4449.293859
4431.605021
4430.329485
4425.643516
4458.185831
4449.674870
4402.647124
4449.170366
4439.209606
4404.428301
4457.777863
4400.617284
4465.828175
4452.113800
4399.855265
4420.874567
4442.277918
4468.788457
4404.009317
4465.223609
4394.312783
4477.203416
4426.653278
4464.759544
4435.519827
4411.743005
4448.308963
4445.381710
4453.776941
4435.978325
4457.028819
4447.033184
4435.840576
4441.548788
4436.384030
4426.061026
4407.454222
4457.064121
4458.901905
4403.058637
4446.154376
4406.844251
4444.843954
4444.232190
4397.263755
4459.401333
4442.951391
4413.952982
4402.157731
4449.553076
4454.086704
4410.155196
4444.652152
4415.321214
4452.283120
4418.964561
4450.198852
4447.963855
4415.549533
4458.350769
4425.318416
4458.068284
4448.508395
4449.086958
4434.901026
4423.106690
4445.062435
4441.385674
4440.120307
4401.928589
4446.489840
4463.755583
4401.952606
4450.056457
4403.867755
4452.230029
4451.385910
4394.864545
4439.640952
4447.538754
4448.241596
4411.071310
4473.004466
4415.925753
4410.857101
4461.023964
4432.680680
4459.303621
4403.353902
4461.179391
4425.342426
4465.637072
4437.602538
4452.389633
4441.346472
4425.526458
4441.277981
4449.391620
4408.541976
4432.184376
4451.900428
4455.023384
4392.937911
4448.086710
4425.242752
4418.701708
4453.473769
4399.912263
4456.827023
4454.507784
4399.485885
4418.828481
4442.871708
4464.439753
4416.846719
4456.797926
4406.241207
4451.560493
4448.491367
4460.561937
4466.893310
4398.941088
4464.282711
4420.673375
4456.516498
4428.415574
4429.424676
4448.074222
4406.846764
4459.515569
4456.423103
4388.342973
4436.060546
4443.869027
4471.288582
4410.247126
4445.205160
4423.949954
4438.064566
4455.694592
4399.666641
4453.959021
4447.255926
4433.608621
4418.325400
4445.786985
4442.787541
4413.251541
4444.019679
4438.520683
4424.838449
4447.837342
4459.291240
4455.913552
4438.472516
4457.547805
4434.069548
4441.869416
4425.363272
4438.284977
4444.740525
4406.516460
4464.060654
4428.504529
4427.119131
4416.043992
4430.455974
4436.236958
4421.176118
4438.653149
4408.886663
4459.643791
4460.431306
4403.000766
4434.345404
4445.670719
4451.333524
4416.659514
4441.708296
4425.671762
4456.754875
4427.688005
4435.736443
4456.320949
4428.554237
4454.118582
4444.560132
4443.275575
4433.590641
4423.239189
4447.015465
4417.695358
4446.114624
4459.291834
4403.619794
4421.734126
4463.925748
4454.689120
4429.642864
4423.846542
4442.292055
4434.540115
4427.028990
4409.307217
4475.498040
4445.002470
4394.283161
4445.896954
4438.280634
4483.719803
4402.946451
4449.096782
4436.246247
4447.172172
4433.387681
4443.133033
4456.391482
4443.962784
4435.217441
4432.900741
4445.010786
4433.266396
4420.749368
4450.546520
4411.522600
4462.386469
4462.569881
4384.678306
4412.091403
4438.305713
4453.959901
4415.555128
4432.636628
4438.136421
4444.283945
4435.676282
4409.806814
4472.755285
4403.605240
4438.951963
4427.126453
4454.225369
4417.431604
4429.876524
4427.922930
4440.663614
4456.973929
4444.889497
4448.742930
4441.305679
4435.409836
4428.054470
4427.210003
4444.971470
4425.555120
4439.364300
4445.603818
4411.049884
4444.317529
4467.737166
4434.336257
4417.580933
4429.066559
4436.363717
4426.226406
4425.061525
4418.146431
4453.035897
4449.357128
4400.132141
4442.438628
4417.141726
4455.661020
4417.195319
4443.629231
4421.431761
4428.147883
4433.666519
4444.204635
4447.004265
4435.700974
4425.513523
4443.610695
4437.373779
4437.035491
4416.454419
4449.554953
4412.650070
4460.660113
4466.197096
4383.697099
4417.845786
4462.375134
4446.905076
4420.238268
4430.649610
4440.765133
4441.163804
4428.537464
4422.869080
4466.724499
4444.696502
4417.121093
4450.321284
4458.328544
4437.144767
4440.696855
4426.565176
4444.006389
4456.027777
4448.857624
4436.618296
4434.678520
4444.534363
4418.259308
4433.053168
4444.017404
4432.550839
4435.359093
4433.211916
4425.314507
4468.010030
4461.031186
4393.260820
4413.039338
4438.909537
4450.747619
4411.139483
4437.317915
4433.541170
4442.286311
4445.817747
4406.790166
4444.209078
4451.400511
4430.678964
4431.301717
4454.410961
4416.191304
4450.018404
4430.141809
4446.267927
4437.163820
4436.123912
4419.623454
4451.072259
4442.255698
4421.889488
4422.745317
4440.638381
4425.611922
4447.239693
4438.349876
4415.077053
4438.236725
4444.721360
4444.416231
4410.848278
4441.594193
4441.190901
4428.539231
4436.305921
4423.674865
4451.055035
4458.746864
4410.282484
4433.151713
4452.043132
4441.095613
4432.120536
4448.485198
4444.214445
4448.130988
4432.846831
4438.308902
4438.000473
4433.715034
4411.811046
4451.154391
4451.198207
4427.590941
4432.282522
4432.745413
4425.958521
4452.516125
4469.488477
4397.165888
4412.224649
4445.305678
4462.856482
4405.090983
4433.229012
4429.559931
4444.777772
4445.112587
4420.607439
4446.520183
4454.258364
4412.209327
4444.912998
4438.487539
4441.265585
4443.092533
4448.013214
4440.032524
4433.423968
4426.225928
4433.550569
4444.153885
4433.369790
4402.714925
4450.596809
4439.419741
4427.838533
4449.810788
4411.376764
4437.632778
4454.097649
4442.790431
4419.328461
4405.514602
4450.088446