# vtk DataFile Version 2.0
mfree iwf
ASCII

DATASET UNSTRUCTURED_GRID
POINTS 6231 float
0.000000 0.000300 0.000000
0.000000 0.000310 0.000000
0.000000 0.000320 0.000000
0.000000 0.000330 0.000000
0.000000 0.000340 0.000000
0.000001 0.000350 0.000000
0.000001 0.000360 0.000000
0.000001 0.000370 0.000000
0.000001 0.000381 0.000000
0.000001 0.000391 0.000000
0.000001 0.000401 0.000000
0.000001 0.000411 0.000000
0.000001 0.000421 0.000000
0.000001 0.000431 0.000000
0.000002 0.000441 0.000000
0.000002 0.000451 0.000000
0.000002 0.000461 0.000000
0.000002 0.000471 0.000000
0.000002 0.000480 0.000000
0.000002 0.000492 0.000000
0.000006 0.000501 0.000000
0.000219 0.000575 0.000000
0.000220 0.000641 0.000000
0.000220 0.000591 0.000000
0.000220 0.000655 0.000000
0.000223 0.000678 0.000000
0.000237 0.000726 0.000000
0.000239 0.000730 0.000000
0.000248 0.000740 0.000000
0.000256 0.000752 0.000000
0.000279 0.000784 0.000000
0.000010 0.000300 0.000000
0.000010 0.000310 0.000000
0.000010 0.000320 0.000000
0.000010 0.000330 0.000000
0.000010 0.000340 0.000000
0.000011 0.000350 0.000000
0.000011 0.000360 0.000000
0.000011 0.000370 0.000000
0.000011 0.000380 0.000000
0.000011 0.000390 0.000000
0.000011 0.000400 0.000000
0.000011 0.000411 0.000000
0.000011 0.000420 0.000000
0.000011 0.000430 0.000000
0.000012 0.000440 0.000000
0.000012 0.000451 0.000000
0.000012 0.000460 0.000000
0.000012 0.000472 0.000000
0.000013 0.000478 0.000000
0.000010 0.000492 0.000000
0.000013 0.000498 0.000000
0.000231 0.000693 0.000000
0.000235 0.000705 0.000000
0.000239 0.000714 0.000000
0.000243 0.000720 0.000000
0.000255 0.000735 0.000000
0.000260 0.000743 0.000000
0.000268 0.000756 0.000000
0.000272 0.000765 0.000000
0.000275 0.000771 0.000000
0.000275 0.000779 0.000000
0.000020 0.000300 0.000000
0.000020 0.000310 0.000000
0.000020 0.000320 0.000000
0.000020 0.000330 0.000000
0.000021 0.000340 0.000000
0.000020 0.000350 0.000000
0.000021 0.000360 0.000000
0.000021 0.000370 0.000000
0.000020 0.000380 0.000000
0.000022 0.000391 0.000000
0.000021 0.000400 0.000000
0.000022 0.000410 0.000000
0.000021 0.000420 0.000000
0.000022 0.000431 0.000000
0.000020 0.000440 0.000000
0.000024 0.000451 0.000000
0.000021 0.000460 0.000000
0.000022 0.000470 0.000000
0.000021 0.000481 0.000000
0.000024 0.000494 0.000000
0.000020 0.000497 0.000000
0.000231 0.000660 0.000000
0.000234 0.000685 0.000000
0.000236 0.000698 0.000000
0.000242 0.000706 0.000000
0.000259 0.000714 0.000000
0.000257 0.000728 0.000000
0.000268 0.000746 0.000000
0.000273 0.000759 0.000000
0.000284 0.000767 0.000000
0.000289 0.000774 0.000000
0.000030 0.000300 0.000000
0.000030 0.000310 0.000000
0.000030 0.000320 0.000000
0.000030 0.000330 0.000000
0.000030 0.000340 0.000000
0.000031 0.000350 0.000000
0.000030 0.000360 0.000000
0.000031 0.000371 0.000000
0.000031 0.000380 0.000000
0.000031 0.000390 0.000000
0.000031 0.000400 0.000000
0.000032 0.000411 0.000000
0.000031 0.000420 0.000000
0.000032 0.000430 0.000000
0.000031 0.000440 0.000000
0.000031 0.000450 0.000000
0.000032 0.000459 0.000000
0.000037 0.000473 0.000000
0.000030 0.000478 0.000000
0.000033 0.000488 0.000000
0.000032 0.000497 0.000000
0.000063 0.000500 0.000000
0.000242 0.000684 0.000000
0.000247 0.000698 0.000000
0.000253 0.000719 0.000000
0.000269 0.000725 0.000000
0.000264 0.000732 0.000000
0.000275 0.000740 0.000000
0.000279 0.000747 0.000000
0.000286 0.000756 0.000000
0.000297 0.000768 0.000000
0.000040 0.000300 0.000000
0.000040 0.000310 0.000000
0.000040 0.000320 0.000000
0.000040 0.000330 0.000000
0.000040 0.000340 0.000000
0.000040 0.000350 0.000000
0.000041 0.000360 0.000000
0.000041 0.000369 0.000000
0.000041 0.000380 0.000000
0.000040 0.000390 0.000000
0.000042 0.000400 0.000000
0.000041 0.000410 0.000000
0.000042 0.000420 0.000000
0.000040 0.000431 0.000000
0.000043 0.000439 0.000000
0.000043 0.000450 0.000000
0.000043 0.000460 0.000000
0.000037 0.000470 0.000000
0.000045 0.000478 0.000000
0.000043 0.000497 0.000000
0.000040 0.000498 0.000000
0.000220 0.000531 0.000000
0.000252 0.000684 0.000000
0.000257 0.000696 0.000000
0.000260 0.000705 0.000000
0.000264 0.000714 0.000000
0.000279 0.000726 0.000000
0.000287 0.000743 0.000000
0.000295 0.000749 0.000000
0.000295 0.000758 0.000000
0.000304 0.000763 0.000000
0.000050 0.000300 0.000000
0.000050 0.000310 0.000000
0.000050 0.000319 0.000000
0.000050 0.000330 0.000000
0.000051 0.000340 0.000000
0.000050 0.000350 0.000000
0.000052 0.000360 0.000000
0.000049 0.000371 0.000000
0.000052 0.000380 0.000000
0.000050 0.000390 0.000000
0.000053 0.000400 0.000000
0.000049 0.000411 0.000000
0.000053 0.000420 0.000000
0.000051 0.000430 0.000000
0.000053 0.000440 0.000000
0.000048 0.000451 0.000000
0.000055 0.000459 0.000000
0.000053 0.000470 0.000000
0.000055 0.000482 0.000000
0.000049 0.000488 0.000000
0.000050 0.000498 0.000000
0.000230 0.000677 0.000000
0.000226 0.000633 0.000000
0.000259 0.000693 0.000000
0.000272 0.000706 0.000000
0.000277 0.000717 0.000000
0.000281 0.000732 0.000000
0.000291 0.000726 0.000000
0.000294 0.000738 0.000000
0.000304 0.000750 0.000000
0.000312 0.000756 0.000000
0.000060 0.000300 0.000000
0.000060 0.000310 0.000000
0.000061 0.000321 0.000000
0.000059 0.000331 0.000000
0.000062 0.000339 0.000000
0.000058 0.000350 0.000000
0.000062 0.000359 0.000000
0.000060 0.000370 0.000000
0.000063 0.000381 0.000000
0.000059 0.000390 0.000000
0.000063 0.000400 0.000000
0.000059 0.000410 0.000000
0.000064 0.000419 0.000000
0.000058 0.000431 0.000000
0.000067 0.000441 0.000000
0.000060 0.000448 0.000000
0.000066 0.000460 0.000000
0.000056 0.000471 0.000000
0.000065 0.000476 0.000000
0.000068 0.000486 0.000000
0.000059 0.000496 0.000000
0.000227 0.000669 0.000000
0.000243 0.000677 0.000000
0.000268 0.000690 0.000000
0.000273 0.000696 0.000000
0.000281 0.000708 0.000000
0.000288 0.000717 0.000000
0.000300 0.000729 0.000000
0.000305 0.000737 0.000000
0.000312 0.000743 0.000000
0.000319 0.000750 0.000000
0.000070 0.000300 0.000000
0.000070 0.000310 0.000000
0.000070 0.000319 0.000000
0.000070 0.000329 0.000000
0.000071 0.000341 0.000000
0.000069 0.000350 0.000000
0.000073 0.000360 0.000000
0.000068 0.000371 0.000000
0.000073 0.000379 0.000000
0.000070 0.000390 0.000000
0.000073 0.000401 0.000000
0.000069 0.000411 0.000000
0.000075 0.000421 0.000000
0.000067 0.000429 0.000000
0.000075 0.000437 0.000000
0.000066 0.000453 0.000000
0.000078 0.000459 0.000000
0.000072 0.000470 0.000000
0.000076 0.000486 0.000000
0.000068 0.000496 0.000000
0.000076 0.000496 0.000000
0.000219 0.000517 0.000000
0.000241 0.000667 0.000000
0.000259 0.000678 0.000000
0.000280 0.000696 0.000000
0.000290 0.000706 0.000000
0.000299 0.000714 0.000000
0.000303 0.000722 0.000000
0.000312 0.000728 0.000000
0.000319 0.000737 0.000000
0.000327 0.000744 0.000000
0.000080 0.000300 0.000000
0.000080 0.000310 0.000000
0.000080 0.000321 0.000000
0.000081 0.000331 0.000000
0.000080 0.000340 0.000000
0.000082 0.000349 0.000000
0.000079 0.000360 0.000000
0.000081 0.000369 0.000000
0.000082 0.000381 0.000000
0.000079 0.000391 0.000000
0.000083 0.000398 0.000000
0.000079 0.000410 0.000000
0.000083 0.000418 0.000000
0.000080 0.000432 0.000000
0.000086 0.000445 0.000000
0.000077 0.000448 0.000000
0.000084 0.000464 0.000000
0.000075 0.000470 0.000000
0.000088 0.000472 0.000000
0.000085 0.000483 0.000000
0.000084 0.000496 0.000000
0.000226 0.000658 0.000000
0.000220 0.000632 0.000000
0.000268 0.000681 0.000000
0.000281 0.000684 0.000000
0.000292 0.000698 0.000000
0.000300 0.000705 0.000000
0.000310 0.000711 0.000000
0.000318 0.000723 0.000000
0.000326 0.000731 0.000000
0.000334 0.000737 0.000000
0.000090 0.000300 0.000000
0.000090 0.000310 0.000000
0.000090 0.000320 0.000000
0.000090 0.000329 0.000000
0.000090 0.000340 0.000000
0.000091 0.000351 0.000000
0.000090 0.000360 0.000000
0.000092 0.000370 0.000000
0.000089 0.000379 0.000000
0.000092 0.000389 0.000000
0.000091 0.000402 0.000000
0.000091 0.000411 0.000000
0.000090 0.000422 0.000000
0.000095 0.000428 0.000000
0.000088 0.000436 0.000000
0.000097 0.000456 0.000000
0.000088 0.000453 0.000000
0.000098 0.000472 0.000000
0.000106 0.000480 0.000000
0.000089 0.000495 0.000000
0.000095 0.000495 0.000000
0.000220 0.000538 0.000000
0.000242 0.000661 0.000000
0.000234 0.000650 0.000000
0.000253 0.000671 0.000000
0.000293 0.000688 0.000000
0.000309 0.000699 0.000000
0.000315 0.000713 0.000000
0.000325 0.000717 0.000000
0.000333 0.000724 0.000000
0.000341 0.000730 0.000000
0.000100 0.000300 0.000000
0.000100 0.000310 0.000000
0.000100 0.000320 0.000000
0.000100 0.000331 0.000000
0.000101 0.000340 0.000000
0.000100 0.000349 0.000000
0.000101 0.000359 0.000000
0.000100 0.000370 0.000000
0.000101 0.000380 0.000000
0.000102 0.000391 0.000000
0.000099 0.000400 0.000000
0.000103 0.000408 0.000000
0.000102 0.000418 0.000000
0.000101 0.000434 0.000000
0.000109 0.000443 0.000000
0.000096 0.000445 0.000000
0.000107 0.000460 0.000000
0.000097 0.000466 0.000000
0.000094 0.000481 0.000000
0.000107 0.000491 0.000000
0.000101 0.000494 0.000000
0.000220 0.000595 0.000000
0.000220 0.000607 0.000000
0.000220 0.000626 0.000000
0.000289 0.000683 0.000000
0.000301 0.000689 0.000000
0.000309 0.000693 0.000000
0.000321 0.000703 0.000000
0.000329 0.000705 0.000000
0.000337 0.000717 0.000000
0.000348 0.000722 0.000000
0.000110 0.000300 0.000000
0.000110 0.000310 0.000000
0.000110 0.000321 0.000000
0.000110 0.000329 0.000000
0.000110 0.000340 0.000000
0.000111 0.000351 0.000000
0.000111 0.000361 0.000000
0.000110 0.000370 0.000000
0.000112 0.000379 0.000000
0.000109 0.000390 0.000000
0.000113 0.000400 0.000000
0.000110 0.000413 0.000000
0.000116 0.000423 0.000000
0.000106 0.000426 0.000000
0.000113 0.000435 0.000000
0.000107 0.000449 0.000000
0.000116 0.000461 0.000000
0.000111 0.000471 0.000000
0.000117 0.000480 0.000000
0.000111 0.000493 0.000000
0.000119 0.000492 0.000000
0.000220 0.000554 0.000000
0.000219 0.000554 0.000000
0.000244 0.000651 0.000000
0.000264 0.000671 0.000000
0.000263 0.000662 0.000000
[...]
POINT_DATA 6231
SCALARS density float 1
LOOKUP_TABLE default
4397.796271
4425.601079
4419.505990
4418.984906
4424.086628
4423.959067
4423.966937
4426.633945
4430.743669
4429.278484
4424.186508
4428.442730
4428.762817
4430.224495
4430.342325
4439.968650
4422.606381
4432.743076
4412.874968
4423.339731
4411.404555
4631.918531
4415.079001
4462.622239
4441.455003
4441.116334
4414.306581
4435.635974
4432.622900
4450.427776
4417.546269
4407.538104
4421.121267
4420.445727
4425.160853
4427.350102
4426.578963
4422.892623
4423.893555
4424.573295
4425.601484
4425.029633
4436.692554
4426.016856
4435.126172
4416.822408
4428.425243
4410.706273
4442.158865
4462.285817
4461.121504
4414.673592
4412.313482
4400.113459
4421.450230
4459.687698
4412.409536
4403.395088
4417.058305
4409.817330
4425.358144
4461.543135
4412.327676
4419.928692
4425.510834
4425.272292
4416.612287
4420.414698
4428.944538
4436.936033
4417.161941
4434.839580
4428.752427
4427.386735
4413.452163
4441.619278
4416.627740
4473.006950
4399.572297
4452.319763
4352.188802
4450.576909
4419.286034
4425.386983
4412.782330
4398.705513
4444.885447
4449.124815
4450.432970
4454.154555
4421.693491
4445.719183
4397.569115
4413.850808
4425.489878
4425.934221
4415.786512
4434.412388
4435.720037
4417.894323
4424.952154
4420.883585
4439.122378
4406.847890
4443.939396
4425.209842
4444.715654
4400.104144
4433.144972
4392.748947
4458.165537
4370.143879
4553.646991
4371.607809
4429.075517
4483.582797
4470.158609
4351.281769
4377.372020
4461.790725
4422.319856
4434.035794
4468.100211
4445.230918
4425.954285
4430.952846
4424.135262
4433.651782
4426.707457
4419.343830
4426.332462
4439.160214
4421.385522
4434.621678
4412.441599
4450.320844
4394.841393
4441.274632
4418.086623
4450.164816
4383.972547
4506.969823
4312.665854
4418.638324
4385.363670
4546.609257
4351.408738
4437.215750
4363.334506
4494.468713
4454.974925
4401.840714
4442.107717
4360.078719
4432.616558
4433.807300
4423.702224
4418.495700
4439.046616
4412.811698
4441.315809
4424.161177
4429.342259
4416.482558
4440.649058
4424.927699
4434.865967
4412.953686
4466.993911
4363.192757
4479.109130
4355.616966
4482.649082
4367.317394
4539.071617
4379.619466
4421.326996
4407.355252
4490.187591
4392.672417
4397.617757
4441.283776
4404.589520
4403.528010
4450.617139
4412.145311
4419.652097
4431.129785
4431.427344
4430.361802
4426.499729
4444.134263
4411.736677
4435.110195
4431.277973
4428.207408
4425.103722
4436.954259
4425.286019
4424.065680
4423.066165
4465.499938
4403.792907
4512.210586
4361.021567
4487.182316
4428.506292
4410.428925
4407.475940
4435.496819
4440.582976
4452.164298
4437.868359
4464.636653
4429.137072
4410.742651
4438.036780
4421.096015
4435.368180
4424.318023
4415.229377
4441.881217
4418.810567
4444.009510
4435.312239
4408.913336
4427.234550
4421.456701
4421.371004
4429.137572
4430.782406
4456.930272
4461.535258
4439.914401
4457.103240
4447.081953
4411.118997
4383.068369
4635.309935
4461.633091
4471.217988
4452.850709
4469.796327
4415.877265
4420.868300
4427.683615
4416.165977
4418.135214
4426.170773
4423.253023
4420.801286
4439.102084
4431.939685
4411.197044
4443.053638
4412.082358
4443.006213
4438.836085
4406.729820
4427.508456
4427.422295
4412.635702
4474.318618
4378.616618
4461.657314
4445.708147
4364.759908
4471.633794
4408.510757
4426.877741
4513.259122
4398.012162
4450.970460
4390.375548
4432.465825
4446.162174
4440.729176
4431.764557
4426.552116
4428.414231
4436.811426
4439.761098
4424.354579
4413.800875
4441.566529
4416.480273
4431.695657
4450.821610
4394.613100
4447.770065
4415.157123
4414.651317
4459.305664
4413.206930
4383.657899
4435.484872
4432.136076
4427.885476
4422.445254
4409.749968
4520.959767
4437.625778
4418.838723
4455.268607
4442.425506
4452.645580
4468.624271
4395.877509
4423.906082
4421.965010
4433.464803
4427.050459
4412.194678
4433.643897
4442.202085
4432.220517
4420.909377
4424.352054
4416.848500
4441.056907
4447.213704
4413.006445
4424.690207
4399.549676
4447.896186
4431.832456
4418.312579
4464.291444
4430.713894
4432.149553
4417.160499
4445.793856
4536.925684
4386.580169
4442.459959
4467.782098
4454.372223
4429.338157
4452.950701
4432.153666
4406.485194
4427.526915
4426.625219
4442.865143
4436.790485
4409.214691
4417.715225
4436.561608
4440.895998
4417.808393
4439.616440
4393.129188
4456.661349
4395.377417
4440.113345
4425.798242
4442.068006
4465.676448
4394.419797
4464.944263
4407.273313
4415.421738
4434.580220
4600.593675
4442.381313
4436.183433
4409.029502
4414.678394
4463.748441
4457.889156
4415.808438
4417.726476
4437.579805
4426.112619
4427.482504
4410.142859
4438.195631
4452.778746
4403.730430
4426.245618
4422.943855
4433.504327
4426.513731
4447.076658
4425.678501
4443.400152
4403.221141
4373.496019
4423.326620
4396.024915
4409.963293
4442.414869
4399.476697
4462.839403
4394.417565
4440.320248
4449.482921
4427.777594
4370.066880
4445.520648
4380.169901
4430.115428
4407.189387
4426.966189
4427.612229
4425.403107
4443.876784
4427.345234
4404.544782
4443.091480
4428.509804
4433.190924
4415.198031
4416.666772
4404.119293
4425.867927
4441.131331
4398.858700
4455.727717
4433.477978
4450.199919
4478.942303
4425.973029
4438.308226
4405.370329
4452.049356
4361.427612
4447.730203
4429.070312
4416.700951
4468.638019
4437.304412
4464.561047
4409.542901
4420.226861
4446.463338
4441.483247
4403.893168
4422.537056
4432.778201
4445.408713
4398.320106
4436.945659
4416.333493
4431.606672
4441.688050
4420.245346
4405.915259
4451.128778
4391.643870
4392.615976
4493.408254
4575.064212
4392.942096
4373.990347
4414.046105
4444.602032
4430.423815
4579.410293
4375.448342
4449.737965
4439.942583
4459.063896
4422.387083
4436.329387
4436.119807
4426.373477
4412.560169
4445.591615
4444.314235
4404.384112
4416.028408
4442.756783
4434.050763
4401.564487
4438.673101
4392.774415
4445.239150
4413.354372
4430.093415
4413.220028
4481.015936
4367.722124
4336.025068
4511.578718
4398.566022
4417.181273
4456.467043
4407.213989
4430.587183
4364.309220
4437.439798
4420.731840
4424.809686
4411.553801
4413.968882
4430.244928
4421.935492
4440.130656
4447.217844
4399.470773
4443.817044
4434.982412
4410.317835
4412.003437
4437.813802
4433.529225
4431.242981
4435.828354
4391.022586
4434.858102
4427.993916
4408.688458
4496.293413
4481.954809
4426.601993
4410.184298
4376.684577
4451.662596
4437.519029
4463.693923
4444.921756
4465.608507
4451.315905
4414.382350
4447.037099
4416.640767
4430.004167
4426.231035
4428.695724
4396.965589
4446.157333
4452.000950
4395.496098
4439.219011
4424.258855
4430.052400
4391.279981
4424.989116
4417.087512
4457.809739
4405.151238
4427.250631
4408.588350
4470.876799
4318.493944
4380.073620
4434.397622
4466.296657
4474.886650
4490.925948
4419.532672
4470.121823
4491.766217
4379.375544
4420.257429
4421.780287
4420.137467
4424.373314
4424.057974
4427.519294
4442.595520
4439.904770
4392.445486
4447.430758
4453.796168
4388.525481
4432.634115
4426.161118
4445.375757
4394.033926
4443.761596
4382.350570
4482.725706
4335.465850
4478.918728
4380.383154
4455.615901
4399.669292
4661.792475
4442.963475
4489.004575
4505.596811
4414.718162
4422.886259
4437.031551
4421.100008
4450.675202
4417.637313
4421.891868
4441.955837
4429.244684
4417.626864
4403.454402
4446.772230
4447.862611
4385.707790
4457.199519
4437.032200
4377.723782
4432.668228
4409.079111
4433.174206
4423.522419
4448.069125
4416.576101
4475.020020
4429.387698
4623.153403
4379.367392
4477.826721
4511.536415
4463.047619
4412.644690
4385.920935
4468.305379
4431.972474
4451.855738
4431.631317
4417.330109
4434.396568
4429.695763
4409.322131
4439.583739
4444.065581
4420.847476
4395.687222
4446.398079
4446.523522
4395.610673
4459.109817
4424.186818
4410.518578
4422.075751
4428.502134
4396.664478
4428.003017
4455.267649
4340.735676
4404.036857
4408.107631
4457.440789
4455.602561
4485.799306
4441.884433
4422.346432
4466.831729
4445.814829
4453.526703
4393.321373
4412.910994
4426.014521
4421.762198
4442.705455
4440.003564
4397.137018
4425.597756
4442.660314
4438.838438
4379.902999
4442.251223
4445.353893
4382.361121
4441.604303
4423.549293
4409.040648
4461.530436
4424.683338
4427.822161
4487.195329
4477.643844
4452.765822
4364.257312
4464.662808
4434.337580
4435.391915
4448.928544
4437.258569
4444.247873
4428.203956
4406.275975
4425.616332
4428.196200
4425.085661
4429.825603
4405.243949
4450.095187
4447.435200
4397.090951
4408.233033
4446.380876
4450.876147
4376.735161
4458.976717
4426.257206
4409.595364
4439.917034
4409.930846
4395.016455
4450.042562
4425.061458
4459.366889
4515.121152
4459.364892
4475.156661
4454.342834
4452.421580
4460.438047
4460.643665
4426.774245
4465.329121
4414.555621
4446.922485
4423.304172
4425.090720
4422.683940
4437.153849
4435.327147
4394.345964
4448.763848
4447.183970
4399.347188
4400.162313
4449.246715
4454.283115
4364.464586
4457.933959
4396.931965
4433.663353
4420.635782
4409.373397
4412.339541
4457.445670
4457.122021
4440.275433
4492.752231
4486.997741
4463.815561
4438.450671
4454.964700
4442.373289
4443.944827
4412.315931
4432.902772
4419.349490
4442.997382
4432.212864
4421.611904
4406.664667
4444.435487
4441.915946
4388.970555
4436.361438
4443.980402
4419.008772
4384.173651
4451.624467
4443.939049
4380.044570
4460.101999
4426.352748
4412.882774
4452.086078
4424.495618
4456.062855
4435.543471
4470.755141
4443.303048
4445.363005
4463.240663
4421.299147
4434.285910
4422.993930
4422.008260
4420.600062
4435.760537
4430.529530
4405.720706
4440.908353
4441.125771
4419.105689
4395.549393
4451.976860
4452.169761
4386.307353
4412.812557
4441.956195
4434.398353
4380.556598
4445.426677
4384.406737
4442.132227
4434.565246
4427.085692
4439.511027
4439.383275
4481.585928
4461.346492
4465.832161
4441.692641
4446.874123
4464.792122
4447.613617
4471.847434
4430.035035
4415.412646
4429.959919
4423.675473
4444.989250
4443.471869
4399.712377
4433.031079
4444.936500
4420.421261
4390.441751
4447.628449
4452.754376
4393.521931
4397.404035
4443.676316
4444.897030
4386.844634
4443.405100
4418.432896
4421.014653
4460.464565
4441.513818
4433.093074
4451.405680
4435.182042
4438.067793
4449.191303
4400.847081
4464.874408
4446.158266
4398.251335
4411.078779
4424.695114
4426.425789
4431.952628
4402.996572
4450.895213
4446.834093
4401.637790
4417.001019
4445.207584
4437.063933
4387.694755
4434.880249
4449.068297
4417.461923
4404.660564
4439.233031
4427.313412
4426.641325
4443.431154
4408.142053
4430.584275
4466.991701
4452.848866
4441.869463
4455.113389
4446.012501
4417.935481
4438.126581
4445.687361
4433.385996
4396.799829
4427.423341
4431.662745
4426.727238
4437.157897
4445.577414
4392.388992
4449.363386
4446.267731
4404.286382
4400.959229
4450.999733
4446.568711
4386.311140
4411.685960
4432.839997
4452.885636
4390.483031
4439.155923
4433.916172
4452.776353
4439.684088
4428.980918
4450.273792
4421.179075
4447.875209
4447.048556
4444.879953
4413.255898
4435.501398
4451.165589
4468.664717
4426.378191
4432.621318
4429.531228
4423.945499
4408.210471
4442.139107
4452.878998
4388.366386
4447.228914
4448.712846
4404.928937
4402.563213
4449.061285
4451.744129
4409.563129
4420.469319
4437.498444
4409.951679
4427.159438
4427.053592
4446.513361
4424.832409
4426.749673
4423.141676
4467.816608
4458.357971
4474.663895
4423.541310
4463.733989
4448.084909
4490.368780
4432.261451
4431.124210
4422.833347
4434.589995
4446.872158
4426.129419
4391.664061
4447.985161
4441.133407
4395.611837
4442.360004
4434.765047
4422.328464
4383.154125
4431.893184
4427.742245
4418.057054
4430.445994
4445.125623
4426.832017
4422.034381
4430.721829
4444.423329
4431.379543
4417.696092
4431.950154
4421.900172
4453.228183
4465.230632
4454.025096
4386.472149
4438.121483
4424.900091
4439.295708
4431.729147
4407.688625
4431.176424
4444.006724
4440.023812
4402.058627
4436.362277
4449.351026
4397.138627
4418.030840
4451.787976
4444.301150
4399.440257
4428.574655
4408.321983
4423.654902
4429.787550
4444.963194
4430.051542
4428.142165
4449.372645
4459.683256
4427.169466
4479.827564
4461.611863
4391.009444
4453.170778
4458.159282
4428.195818
4425.370207
4429.583158
4424.669199
4452.649477
4435.326818
4414.851317
4399.679046
4442.900243
4444.291420
4396.323796
4452.446939
4441.472106
4398.048936
4396.233964
4432.008261
4445.442437
4409.116016
4452.722909
4413.725042
4433.643852
4434.914599
4427.670233
4447.458500
4421.317979
4456.492004
4400.959199
4471.215151
4506.429865
4441.507951
4461.257818
4428.960198
4431.480151
4449.157387
4401.283206
4437.881675
4402.567932
4447.033050
4454.694190
4416.905571
4402.547155
4439.795757
4435.258399
4400.612204
4437.956777
4444.536128
4429.696304
4406.408422
4423.883279
4399.946044
4439.038988
4415.026884
4420.510860
4433.863206
4452.644406
4439.721850
4457.207877
4446.703707
4457.636564
4442.532024
4453.829490
4463.847449
4443.188930
4425.364682
4433.025222
4434.834354
4419.858224
4447.164177
4424.737395
4388.635060
4434.816066
4438.882581
4426.826601
4409.120661
4438.595558
4441.059924
4400.907428
4400.661909
4433.006800
4450.854535
4398.362647
4458.542990
4445.167574
4433.434034
4408.259016
4430.176867
4439.382726
4455.911380
4436.780672
4456.348369
4472.213649
4456.458724
4461.280465
4442.715711
4426.984098
4423.119451
4451.067909
4414.058098
4419.362468
4440.310964
4452.872093
4437.347519
4407.449170
4415.428289
4441.665913
4433.429902
4407.444314
4455.908348
4434.557034
4428.878186
4403.847561
4458.675258
4373.460318
4449.909973
4444.682655
4450.317001
4446.310092
4436.327341
4451.252109
4455.111249
4452.056816
4452.483711
4447.458918
4458.856929
4418.296421
4432.409656
4442.594762
4413.220089
4444.803191
4437.098982
4425.392926
4406.396866
4417.661745
4425.389749
4451.418179
4410.919348
4428.136652
4442.148402
4434.970882
4389.303691
4446.437402
4416.196407
4445.648773
4410.736979
4440.427319
4441.879334
4410.762892
4416.420200
4450.607980
4451.098368
4465.659715
4456.629013
4467.996481
4467.617437
4459.015867
4423.865850
4431.176772
4429.912388
4413.656422
4451.417233
4390.789177
4435.588597
4439.482972
4448.701387
4421.099374
4424.370798
4411.145823
4453.524900
4402.054883
4440.675464
4445.744439
4430.963282
4426.332527
4425.013960
4446.417348
4451.963522
4404.269264
4460.661622
4447.365271
4472.547943
4426.930212
4431.411030
4464.934576
4445.453934
4453.414416
4457.822662
4433.878856
4431.974511
4411.707009
4453.468847
4434.463058
4448.081986
4442.790835
4391.093970
4431.428929
4417.397232
4440.703722
4419.603747
4430.719862
4400.858900
4447.556336
4417.774286
4413.462227
4446.384174
4447.736073
4433.838735
4431.915947
4445.561805
4445.135497
4416.146605
4455.939128
4479.139658
4473.275421
4434.657045
4462.037172
4456.942213
4456.982734
4429.563606
4421.538020
4445.979910
4422.604064
4412.473177
4452.326003
4411.963070
4454.696027
4428.914381
4427.211698
4431.588746
4433.902965
4424.462781
4443.978910
4429.291328
4393.794311
4447.630112
4396.193270
4437.954870
4409.079522
4450.520340
4428.594818
4436.669153
4458.063311
4431.639766
4461.871424
4439.026225
4458.054748
4448.598430
4452.480351
4455.398364
4428.068790
4428.832290
4427.160728
4418.224354
4453.447222
4415.025637
4434.771114
4458.703294
4380.638105
4452.327864
4407.321586
4439.140553
4412.343803
4417.582356
4427.733626
4442.168999
4460.726041
4397.212280
4469.787977
4415.723117
4449.237944
4425.248802
4447.721881
4443.057036
4426.070182
4440.217037
4464.784860
4456.768178
4455.600725
4457.501473
4452.554828
4427.641520
4440.834366
4435.362502
4428.072486
4447.633645
4417.944603
4447.719458
4403.527533
4457.534976
4437.850359
4395.154920
4443.576578
4414.418426
4455.156852
4412.833023
4432.363204
4393.630936
4457.031154
4451.436268
4409.634834
4464.960246
4422.115235
4456.265083
4430.195168
4454.733288
4452.769990
4435.056411
4457.445076
4442.330816
4457.966548
4451.852194
4441.709476
4438.408326
4414.026617
4443.676412
4391.794783
4438.417539
4435.892816
4425.332282
4465.182730
4392.330410
4449.098148
4420.929166
4422.166118
4445.405140
4402.656295
4438.599280
4440.764403
4447.062966
4406.110176
4464.235654
4425.887043
4402.991951
4456.459799
4427.734521
4468.390440
4412.224850
4458.439168
4446.869967
4464.394676
4446.587036
4454.835529
4436.878977
4430.077674
4425.704696
4457.238852
4425.719673
4446.641621
4417.159790
4457.833631
4394.573324
4462.114682
4445.892940
4394.745865
4454.222358
4403.674878
4457.169189
4436.250772
4413.127952
4417.679637
4444.428188
4453.194894
4428.957313
4460.947097
4424.671576
4451.555575
4452.838514
4456.652628
4469.807143
4414.584944
4454.526002
4436.512806
4455.258112
4425.370884
4427.103005
4444.415064
4399.574093
4445.168783
4423.799527
4416.211071
4449.262978
4437.720429
4464.607350
4392.535604
4447.814610
4446.470465
4414.691342
4450.765385
4418.465356
4459.050113
4436.403957
4444.996143
4423.710549
4452.582744
4451.538878
4389.100857
4457.168074
4434.048781
4438.207831
4453.247332
4463.835001
4457.314152
4448.342154
4455.162467
4433.495232
4436.230222
4437.234019
4427.908729
4452.982521
4414.053638
4460.541073
4408.155139
4441.077756
4411.545910
4464.915704
4450.898391
4395.033229
4452.844998
4405.831281
4447.010334
4431.789342
4427.525009
4431.447743
4446.416473
4446.780927
4415.931676
4466.347048
4412.315584
4456.897917
4444.500088
4449.853711
4451.232190
4429.948640
4453.403342
4450.210901
4442.439412
4430.016809
4418.049275
4429.421777
4415.218546
4433.472836
4451.385990
4387.238317
4444.690168
4429.182771
4453.058702
4398.635007
4466.980934
4436.050586
4409.953138
4439.007673
4417.722209
4456.728746
4428.877061
4419.109309
4445.739550
4452.120686
4471.660277
4398.616750
4449.763811
4433.931399
4459.274438
4446.834660
4445.218286
4458.015140
4446.717662
4433.536736
4427.060417
4451.592373
4438.814547
4426.509910
4448.408271
4430.282901
4466.476407
4438.244750
4411.822994
4431.954181
4433.767979
4468.156030
4391.762953
4439.027091
4434.349195
4429.511957
4438.215946
4423.402709
4456.106535
4408.431056
4443.879760
4421.676247
4462.840975
4419.296610
4431.582713
4436.695126
4440.672110
4460.629921
4450.766066
4451.031906
4432.223150
4432.639360
4428.710640
4408.414156
4447.807808
4421.287972
4433.161959
4436.950282
4415.361950
4444.265531
4424.430032
4430.001617
4421.076109
4471.523849
4443.228221
4413.795607
4431.894459
4425.999137
4444.920833
4445.294050
4411.241669
4449.656128
4428.958075
4460.322422
4415.942590
4450.081992
4432.989533
4432.136139
4438.827866
4441.958612
4450.522096
4433.880576
4433.552956
4425.336082
4442.595696
4453.883563
4418.493120
4448.733957
4415.356264
4450.504161
4463.045108
4418.095038
4431.280097
4442.031444
4445.673926
4402.452915
4455.165875
4448.870397
4416.635382
4433.987155
4430.002568
4460.522403
4425.784608
4432.004427
4438.108358
4460.238279
4445.663808
4437.335683
4439.897052
4447.064991
4457.866739
4450.793978
4432.545042
4438.492062
4434.307806
4429.737469
4400.633159
4455.289504
4438.041396
4425.890247
4444.918068
4426.919489
4453.805775
4450.084490
4408.920240
4423.347331
4450.544745
4447.246259
4407.777660
4447.861402
4433.374608
4432.980529
4454.179263
4402.801975
4440.113548
4453.648249
4433.504755
4431.207323
4453.140456
4435.272301
4443.962356
4440.260540
4448.125545
4437.437665
4439.252879
4414.310900
4455.217190
4440.637525
4433.212638
4423.585930
4444.637295
4424.601009
4455.353607
4437.894216
4420.527644
4439.782014
4418.566879
4424.968491
4412.087989
4458.629928
4439.906776
4425.221036
4427.829722
4439.149329
4460.472124
4446.981670
4416.543304
4432.160497
4457.048114
4446.844690
4435.370249
4449.793295
4449.577057
4448.654203
4437.882786
4432.906265
4440.637307
4430.685391
4411.694493
4440.494152
4440.665784
4442.717276
4428.545758
4434.373668
4426.786093
4450.944019
4466.634524
4420.059891
4428.640138
4428.187342
4456.695878
4407.298425
4449.744468
4430.302348
4449.410616
4432.453212
4435.103393
4454.839786
4441.804438
4425.872562
4433.553159
4444.035400
4451.739351
4438.883343
4450.522917
4438.690550
4422.093015
4439.067621
4421.628370
4452.997779
4446.414575
4421.862797
4433.403347
4444.492723
4437.777443
4436.861916
4440.816210
4411.728701
4469.508286
4410.500542
4433.211655
4434.048969
4455.770796