# vtk DataFile Version 2.0
mfree iwf
ASCII

DATASET UNSTRUCTURED_GRID
POINTS 6231 float
0.000000 0.000300 0.000000
0.000000 0.000310 0.000000
0.000000 0.000320 0.000000
0.000000 0.000330 0.000000
0.000000 0.000340 0.000000
0.000001 0.000350 0.000000
0.000001 0.000360 0.000000
0.000001 0.000371 0.000000
0.000001 0.000381 0.000000
0.000001 0.000391 0.000000
0.000001 0.000401 0.000000
0.000001 0.000411 0.000000
0.000001 0.000421 0.000000
0.000001 0.000431 0.000000
0.000001 0.000441 0.000000
0.000002 0.000451 0.000000
0.000002 0.000461 0.000000
0.000002 0.000471 0.000000
0.000002 0.000480 0.000000
0.000002 0.000492 0.000000
0.000005 0.000500 0.000000
0.000020 0.000511 0.000000
0.000020 0.000522 0.000000
0.000020 0.000531 0.000000
0.000020 0.000543 0.000000
0.000020 0.000552 0.000000
0.000020 0.000562 0.000000
0.000020 0.000572 0.000000
0.000020 0.000583 0.000000
0.000020 0.000594 0.000000
0.000020 0.000613 0.000000
0.000010 0.000300 0.000000
0.000010 0.000310 0.000000
0.000010 0.000320 0.000000
0.000010 0.000330 0.000000
0.000010 0.000340 0.000000
0.000011 0.000350 0.000000
0.000011 0.000360 0.000000
0.000011 0.000370 0.000000
0.000011 0.000380 0.000000
0.000011 0.000390 0.000000
0.000011 0.000400 0.000000
0.000011 0.000411 0.000000
0.000011 0.000420 0.000000
0.000011 0.000431 0.000000
0.000012 0.000440 0.000000
0.000012 0.000451 0.000000
0.000012 0.000460 0.000000
0.000012 0.000471 0.000000
0.000013 0.000479 0.000000
0.000010 0.000492 0.000000
0.000013 0.000498 0.000000
0.000028 0.000510 0.000000
0.000027 0.000527 0.000000
0.000029 0.000536 0.000000
0.000029 0.000548 0.000000
0.000029 0.000559 0.000000
0.000029 0.000570 0.000000
0.000028 0.000581 0.000000
0.000027 0.000593 0.000000
0.000027 0.000602 0.000000
0.000025 0.000612 0.000000
0.000020 0.000300 0.000000
0.000020 0.000310 0.000000
0.000020 0.000320 0.000000
0.000020 0.000330 0.000000
0.000021 0.000340 0.000000
0.000020 0.000350 0.000000
0.000021 0.000360 0.000000
0.000021 0.000370 0.000000
0.000021 0.000380 0.000000
0.000021 0.000390 0.000000
0.000021 0.000400 0.000000
0.000021 0.000411 0.000000
0.000021 0.000420 0.000000
0.000021 0.000431 0.000000
0.000022 0.000440 0.000000
0.000021 0.000451 0.000000
0.000023 0.000460 0.000000
0.000021 0.000471 0.000000
0.000023 0.000481 0.000000
0.000023 0.000491 0.000000
0.000022 0.000498 0.000000
0.000034 0.000517 0.000000
0.000037 0.000523 0.000000
0.000038 0.000535 0.000000
0.000038 0.000545 0.000000
0.000039 0.000556 0.000000
0.000038 0.000567 0.000000
0.000037 0.000578 0.000000
0.000037 0.000590 0.000000
0.000036 0.000602 0.000000
0.000036 0.000612 0.000000
0.000030 0.000300 0.000000
0.000030 0.000310 0.000000
0.000030 0.000320 0.000000
0.000030 0.000330 0.000000
0.000030 0.000340 0.000000
0.000030 0.000350 0.000000
0.000031 0.000360 0.000000
0.000031 0.000370 0.000000
0.000031 0.000380 0.000000
0.000031 0.000390 0.000000
0.000031 0.000400 0.000000
0.000031 0.000410 0.000000
0.000032 0.000420 0.000000
0.000031 0.000431 0.000000
0.000032 0.000440 0.000000
0.000031 0.000450 0.000000
0.000032 0.000460 0.000000
0.000031 0.000471 0.000000
0.000033 0.000480 0.000000
0.000032 0.000491 0.000000
0.000033 0.000501 0.000000
0.000040 0.000507 0.000000
0.000046 0.000525 0.000000
0.000046 0.000538 0.000000
0.000047 0.000548 0.000000
0.000047 0.000560 0.000000
0.000047 0.000571 0.000000
0.000046 0.000582 0.000000
0.000045 0.000592 0.000000
0.000046 0.000601 0.000000
0.000046 0.000612 0.000000
0.000040 0.000300 0.000000
0.000040 0.000310 0.000000
0.000040 0.000320 0.000000
0.000040 0.000330 0.000000
0.000040 0.000340 0.000000
0.000041 0.000350 0.000000
0.000041 0.000360 0.000000
0.000041 0.000370 0.000000
0.000041 0.000380 0.000000
0.000041 0.000390 0.000000
0.000041 0.000400 0.000000
0.000041 0.000410 0.000000
0.000041 0.000420 0.000000
0.000041 0.000430 0.000000
0.000042 0.000440 0.000000
0.000042 0.000450 0.000000
0.000041 0.000460 0.000000
0.000042 0.000470 0.000000
0.000042 0.000480 0.000000
0.000042 0.000490 0.000000
0.000044 0.000500 0.000000
0.000048 0.000512 0.000000
0.000053 0.000524 0.000000
0.000055 0.000535 0.000000
0.000056 0.000548 0.000000
0.000056 0.000558 0.000000
0.000056 0.000569 0.000000
0.000055 0.000581 0.000000
0.000056 0.000591 0.000000
0.000055 0.000602 0.000000
0.000055 0.000612 0.000000
0.000050 0.000300 0.000000
0.000050 0.000310 0.000000
0.000050 0.000320 0.000000
0.000050 0.000330 0.000000
0.000050 0.000340 0.000000
0.000050 0.000350 0.000000
0.000051 0.000360 0.000000
0.000051 0.000370 0.000000
0.000051 0.000380 0.000000
0.000051 0.000390 0.000000
0.000051 0.000400 0.000000
0.000051 0.000410 0.000000
0.000051 0.000420 0.000000
0.000051 0.000430 0.000000
0.000051 0.000440 0.000000
0.000052 0.000450 0.000000
0.000051 0.000460 0.000000
0.000052 0.000470 0.000000
0.000052 0.000480 0.000000
0.000053 0.000490 0.000000
0.000054 0.000501 0.000000
0.000056 0.000511 0.000000
0.000061 0.000521 0.000000
0.000063 0.000536 0.000000
0.000064 0.000548 0.000000
0.000065 0.000560 0.000000
0.000065 0.000571 0.000000
0.000064 0.000581 0.000000
0.000065 0.000591 0.000000
0.000065 0.000602 0.000000
0.000065 0.000612 0.000000
0.000060 0.000300 0.000000
0.000060 0.000310 0.000000
0.000060 0.000320 0.000000
0.000060 0.000330 0.000000
0.000060 0.000340 0.000000
0.000061 0.000350 0.000000
0.000061 0.000360 0.000000
0.000061 0.000370 0.000000
0.000061 0.000380 0.000000
0.000061 0.000390 0.000000
0.000061 0.000400 0.000000
0.000061 0.000410 0.000000
0.000061 0.000420 0.000000
0.000061 0.000430 0.000000
0.000061 0.000440 0.000000
0.000062 0.000450 0.000000
0.000062 0.000460 0.000000
0.000062 0.000470 0.000000
0.000062 0.000480 0.000000
0.000062 0.000490 0.000000
0.000064 0.000500 0.000000
0.000066 0.000510 0.000000
0.000068 0.000524 0.000000
0.000071 0.000535 0.000000
0.000073 0.000546 0.000000
0.000073 0.000559 0.000000
0.000074 0.000570 0.000000
0.000075 0.000580 0.000000
0.000075 0.000591 0.000000
0.000075 0.000602 0.000000
0.000075 0.000612 0.000000
0.000070 0.000300 0.000000
0.000070 0.000310 0.000000
0.000070 0.000320 0.000000
0.000070 0.000330 0.000000
0.000070 0.000340 0.000000
0.000071 0.000350 0.000000
0.000071 0.000360 0.000000
0.000071 0.000370 0.000000
0.000071 0.000380 0.000000
0.000071 0.000390 0.000000
0.000071 0.000400 0.000000
0.000071 0.000410 0.000000
0.000071 0.000420 0.000000
0.000071 0.000430 0.000000
0.000071 0.000440 0.000000
0.000072 0.000450 0.000000
0.000072 0.000460 0.000000
0.000072 0.000470 0.000000
0.000072 0.000480 0.000000
0.000073 0.000490 0.000000
0.000073 0.000500 0.000000
0.000074 0.000511 0.000000
0.000076 0.000521 0.000000
0.000079 0.000533 0.000000
0.000081 0.000546 0.000000
0.000082 0.000558 0.000000
0.000083 0.000569 0.000000
0.000083 0.000580 0.000000
0.000084 0.000591 0.000000
0.000084 0.000601 0.000000
0.000085 0.000611 0.000000
0.000080 0.000300 0.000000
0.000080 0.000310 0.000000
0.000080 0.000320 0.000000
0.000080 0.000330 0.000000
0.000080 0.000340 0.000000
0.000081 0.000350 0.000000
0.000081 0.000360 0.000000
0.000081 0.000370 0.000000
0.000081 0.000380 0.000000
0.000081 0.000390 0.000000
0.000081 0.000400 0.000000
0.000081 0.000410 0.000000
0.000081 0.000420 0.000000
0.000081 0.000430 0.000000
0.000081 0.000440 0.000000
0.000082 0.000450 0.000000
0.000082 0.000460 0.000000
0.000082 0.000470 0.000000
0.000082 0.000480 0.000000
0.000082 0.000490 0.000000
0.000083 0.000500 0.000000
0.000084 0.000510 0.000000
0.000085 0.000521 0.000000
0.000087 0.000534 0.000000
0.000089 0.000545 0.000000
0.000091 0.000556 0.000000
0.000092 0.000568 0.000000
0.000093 0.000579 0.000000
0.000093 0.000590 0.000000
0.000094 0.000601 0.000000
0.000095 0.000611 0.000000
0.000090 0.000300 0.000000
0.000090 0.000310 0.000000
0.000090 0.000320 0.000000
0.000090 0.000330 0.000000
0.000090 0.000340 0.000000
0.000091 0.000350 0.000000
0.000091 0.000360 0.000000
0.000091 0.000370 0.000000
0.000091 0.000380 0.000000
0.000091 0.000390 0.000000
0.000091 0.000400 0.000000
0.000091 0.000410 0.000000
0.000091 0.000420 0.000000
0.000091 0.000430 0.000000
0.000091 0.000440 0.000000
0.000092 0.000450 0.000000
0.000092 0.000460 0.000000
0.000092 0.000470 0.000000
0.000092 0.000480 0.000000
0.000092 0.000490 0.000000
0.000093 0.000500 0.000000
0.000093 0.000511 0.000000
0.000094 0.000521 0.000000
0.000095 0.000532 0.000000
0.000097 0.000543 0.000000
0.000099 0.000555 0.000000
0.000100 0.000566 0.000000
0.000101 0.000578 0.000000
0.000102 0.000589 0.000000
0.000103 0.000600 0.000000
0.000104 0.000610 0.000000
0.000100 0.000300 0.000000
0.000100 0.000310 0.000000
0.000100 0.000320 0.000000
0.000100 0.000330 0.000000
0.000100 0.000340 0.000000
0.000101 0.000350 0.000000
0.000101 0.000360 0.000000
0.000101 0.000370 0.000000
0.000101 0.000380 0.000000
0.000101 0.000390 0.000000
0.000101 0.000400 0.000000
0.000101 0.000410 0.000000
0.000101 0.000420 0.000000
0.000101 0.000430 0.000000
0.000101 0.000440 0.000000
0.000102 0.000450 0.000000
0.000102 0.000460 0.000000
0.000102 0.000470 0.000000
0.000102 0.000480 0.000000
0.000102 0.000490 0.000000
0.000103 0.000500 0.000000
0.000103 0.000510 0.000000
0.000104 0.000521 0.000000
0.000105 0.000532 0.000000
0.000106 0.000543 0.000000
0.000107 0.000554 0.000000
0.000109 0.000565 0.000000
0.000110 0.000577 0.000000
0.000111 0.000588 0.000000
0.000113 0.000599 0.000000
0.000114 0.000610 0.000000
0.000110 0.000300 0.000000
0.000110 0.000310 0.000000
0.000110 0.000320 0.000000
0.000110 0.000330 0.000000
0.000110 0.000340 0.000000
0.000111 0.000350 0.000000
0.000111 0.000360 0.000000
0.000111 0.000370 0.000000
0.000111 0.000380 0.000000
0.000111 0.000390 0.000000
0.000111 0.000400 0.000000
0.000111 0.000410 0.000000
0.000111 0.000420 0.000000
0.000111 0.000430 0.000000
0.000111 0.000440 0.000000
0.000112 0.000450 0.000000
0.000112 0.000460 0.000000
0.000112 0.000470 0.000000
0.000112 0.000480 0.000000
0.000112 0.000490 0.000000
0.000112 0.000500 0.000000
0.000113 0.000511 0.000000
0.000113 0.000521 0.000000
0.000114 0.000531 0.000000
0.000115 0.000542 0.000000
0.000116 0.000553 0.000000
[...]
POINT_DATA 6231
SCALARS density float 1
LOOKUP_TABLE default
4387.218371
4421.936303
4420.940528
4421.802861
4423.125295
4423.511798
4424.426494
4424.907942
4425.176243
4426.190846
4425.894920
4427.278600
4426.270196
4429.292283
4426.778513
4432.147838
4425.220830
4435.130368
4409.866498
4452.983405
4379.155175
4671.360248
4455.412416
4628.154447
4505.031733
4543.970983
4533.796340
4520.950136
4528.732074
4570.409405
4526.976833
4396.109169
4416.642991
4418.743780
4418.282268
4421.603765
4421.662603
4422.683821
4423.708473
4424.022070
4425.756759
4424.549976
4427.891892
4425.237838
4429.420673
4424.253835
4432.096925
4420.421696
4437.767467
4427.867206
4457.178514
4374.678145
4418.171836
4413.880633
4463.214394
4460.863213
4441.471222
4442.422476
4443.545056
4409.789722
4383.047542
4455.667589
4403.853166
4418.091194
4418.640092
4417.999511
4422.550310
4421.905265
4422.424573
4425.587372
4422.719431
4427.830643
4423.435260
4431.083604
4422.593074
4435.621536
4420.807894
4443.758682
4415.235580
4450.494986
4398.608939
4502.563841
4422.408792
4478.582166
4524.965325
4471.761518
4476.353716
4472.202478
4479.009186
4459.335396
4473.659391
4478.200560
4451.922223
4408.605470
4420.688841
4418.271177
4421.401470
4421.870061
4422.354731
4424.147388
4425.542800
4423.728678
4429.255806
4424.097119
4431.639609
4424.725386
4435.335063
4425.676974
4436.985506
4428.583144
4434.523702
4448.031917
4430.302885
4444.444166
4480.791303
4457.252525
4476.804037
4469.466280
4461.842959
4457.287032
4458.189359
4440.813058
4447.936065
4450.630379
4413.253084
4422.653098
4419.790860
4422.569386
4421.936694
4424.731388
4424.316455
4425.173167
4426.535510
4427.739402
4426.696637
4430.754587
4429.250639
4431.219965
4432.832406
4431.434443
4439.112413
4432.639739
4444.817912
4433.112426
4471.060657
4436.057211
4475.931867
4461.293893
4461.697511
4456.817356
4460.615633
4448.963288
4458.386838
4452.317418
4453.034415
4415.762561
4423.693660
4421.696641
4422.793000
4424.141472
4424.772880
4424.515111
4426.998586
4427.223577
4426.605011
4430.593854
4428.096275
4431.684611
4430.904846
4435.119210
4433.707703
4438.028452
4436.389987
4445.746799
4437.567542
4446.046161
4472.576559
4468.523901
4466.288725
4470.074909
4461.058175
4458.653276
4456.010736
4455.988394
4450.871610
4450.475783
4418.778374
4424.620208
4423.499572
4424.200627
4425.098390
4424.537336
4427.323776
4426.579165
4427.328560
4428.950777
4429.917613
4429.064110
4433.214586
4432.061626
4433.702328
4435.536566
4437.277391
4439.588806
4437.634495
4440.896560
4452.764259
4447.505241
4446.089130
4462.866144
4453.240096
4453.636373
4454.966402
4453.328927
4452.299880
4452.233898
4449.922861
4421.320420
4425.692740
4424.454126
4424.838082
4425.980679
4426.410372
4427.316472
4426.438555
4429.512019
4428.957852
4428.964617
4432.203642
4431.238446
4432.662041
4435.261782
4437.005540
4436.853917
4438.853034
4436.753574
4445.688660
4452.379794
4447.512093
4464.511256
4454.822638
4457.850211
4462.704848
4456.183931
4458.908263
4453.355743
4454.429008
4450.372668
4423.167304
4426.544272
4425.745179
4426.418082
4426.999288
4426.655178
4427.501475
4428.997616
4428.983007
4428.767948
4431.582501
4431.116704
4431.259351
4434.876558
4434.024565
4434.823947
4436.139652
4438.608962
4440.140234
4438.453785
4439.134785
4449.788812
4446.843393
4449.849012
4454.481628
4450.634255
4452.418197
4453.599824
4451.393418
4453.042946
4451.083347
4424.827125
4427.521401
4426.720583
4426.973255
4427.196002
4427.956334
4428.987752
4428.462073
4428.911429
4431.035437
4430.575712
4430.639303
4433.734509
4432.603711
4433.249287
4436.289602
4435.961510
4434.646530
4433.614860
4440.152007
4445.732094
4448.541702
4445.300171
4453.687405
4450.650430
4454.270495
4456.872294
4453.631002
4456.386718
4454.293554
4452.051073
4426.356838
4428.290987
4427.402965
4427.990176
4428.609080
4428.705397
4428.551596
4429.316895
4430.938305
4430.145797
4430.534760
4432.838775
4431.950156
4432.222554
4435.106140
4433.413005
4432.800947
4436.273270
4436.488315
4437.842190
4438.198587
4441.563817
4446.761710
4447.437659
4447.598384
4451.848343
4449.054808
4453.524286
4450.839350
4454.082980
4452.898757
4427.567377
4428.881897
4428.369215
4428.899988
4428.707370
4428.858750
4429.916062
4430.509827
4429.858997
4430.402733
4432.535920
4431.358714
4431.655063
4434.247258
4432.192603
4432.687211
4435.172062
4434.226008
4433.670594
4436.622345
4438.986172
4444.356618
4444.186659
4446.252375
4449.501180
4451.197270
4450.647183
4454.753811
4454.147244
4455.911728
4453.830954
4428.699449
4429.587390
4429.087348
4429.256476
4429.551098
4430.238598
4430.260227
4429.792216
4430.994358
4432.263165
4430.978877
4431.617943
4433.758381
4431.846556
4432.125392
4434.567288
4432.531999
4432.192055
4434.314081
4434.851432
4435.637612
4439.834700
4441.662321
4447.432695
4445.879160
4448.687820
4450.688293
4451.264640
4452.626371
4454.978511
4454.682662
4429.736830
4430.063649
4429.575237
4430.131475
4430.308018
4430.073708
4430.305305
4431.412399
4431.727956
4430.771932
4431.812970
4433.464568
4431.713861
4432.367344
4434.656079
4431.722715
4431.953785
4434.473079
4433.637715
4434.227570
4437.353988
4440.122568
4442.759815
4444.870795
4446.541613
4449.573847
4450.740864
4453.079781
4455.202529
4455.815428
4455.568050
4430.548895
4430.519536
4430.371699
4430.676757
4430.355478
4430.985395
4431.570838
4431.290409
4431.053676
4432.253703
4433.198742
4431.667045
4432.600282
4434.397711
4431.935776
4432.737389
4435.474441
4432.242081
4432.421690
4434.643758
4435.358206
4436.385202
4440.731371
4442.750870
4447.431642
4447.995980
4450.582336
4452.333787
4454.693849
4455.374743
4456.044627
4431.357220
4431.017473
4430.768736
4431.000660
4431.196108
4431.609533
4431.116843
4431.544774
4432.621786
4432.633679
4431.717501
4432.887520
4434.338905
4432.250855
4433.387311
4435.363214
4432.220031
4432.904613
4436.367806
4433.993303
4435.380159
4437.819598
4441.354619
4442.957119
4446.924039
4447.677024
4453.023160
4452.834199
4456.679622
4455.731087
4456.351270
4432.050231
4431.346380
4431.238184
4431.695904
4431.567259
4431.541679
4432.011195
4432.787056
4432.110257
4432.087918
4433.468832
4433.952708
4432.479614
4433.581405
4435.417116
4432.637297
4434.287475
4436.833937
4433.603592
4433.791895
4437.499073
4436.429005
4439.070721
4441.439174
4446.857388
4448.021425
4453.086879
4452.237341
4456.606887
4455.122783
4456.359961
4432.636916
4431.705031
4431.780561
4431.958637
4431.764857
4432.418343
4432.487903
4432.083662
4432.590641
4433.804884
4433.284442
4432.675027
4434.140382
4435.132710
4433.249314
4434.532638
4436.813596
4433.300115
4435.218034
4438.525657
4436.420734
4437.129979
4441.808318
4442.156798
4446.834448
4448.233960
4453.146319
4453.105342
4457.099952
4454.698089
4455.982681
4433.242600
4432.047301
4432.050562
4432.353032
4432.422364
4432.607212
4432.349166
4433.141211
4433.631098
4432.916804
4433.115602
4434.661979
4434.574148
4433.463838
4434.966587
4436.440741
4434.071710
4435.863118
4438.984808
4435.210462
4437.156710
4440.693982
4440.436468
4441.449497
4446.735220
4447.942199
4452.525361
4452.644180
4455.211837
4454.738121
4455.239319
4433.736318
4432.270212
4432.459668
4432.818059
4432.529800
4432.836766
4433.172222
4433.432681
4432.876557
4433.671199
4434.741192
4434.006506
4433.735331
4435.472903
4435.889691
4434.441814
4436.150846
4438.153127
4435.272693
4437.354232
4441.603393
4438.654788
4440.999894
4444.506975
4446.216592
4447.364615
4451.313567
4452.110579
4454.723807
4453.983892
4454.265208
4434.177778
4432.540229
4432.840748
4432.978815
4432.868815
4433.482548
4433.182208
4433.323958
4433.954325
4434.536704
4433.623263
4434.173379
4435.761915
4435.288547
4434.617606
4436.481513
4437.418295
4435.610200
4437.755389
4440.561538
4437.439929
4439.383169
4444.009693
4442.223776
4444.520181
4447.361025
4449.604843
4450.879860
4452.948762
4453.217563
4453.204805
4434.603206
4432.792255
4433.046880
4433.312576
4433.309970
4433.452108
4433.393022
4434.215843
4433.987127
4433.803408
4434.582162
4435.706685
4434.657060
4434.832542
4436.762298
4436.679092
4435.760187
4437.828071
4439.295970
4437.108076
4439.502062
4443.263178
4440.699971
4442.437092
4446.317706
4445.791659
4447.781646
4449.881214
4451.378075
4452.285140
4452.045160
4434.985334
4432.974280
4433.338356
4433.631638
4433.373503
4433.798129
4434.006382
4434.014907
4433.948414
4434.990071
4435.059700
4434.494249
4435.158948
4436.845428
4435.931974
4435.794064
4437.902902
4438.238364
4437.070553
4439.402006
4441.447676
4439.070379
4440.896644
4444.776299
4443.096844
4444.538215
4447.365001
4447.977149
4449.652415
4450.987285
4450.742412
4435.318253
4433.130417
4433.596602
4433.797703
4433.648658
4434.189752
4433.862784
4434.286557
4434.798839
4434.747866
4434.479351
4435.667815
4436.278420
4435.481582
4435.841555
4437.950205
4437.316893
4436.999514
4439.240326
4440.064271
4438.570631
4440.976371
4443.639574
4441.627188
4442.821664
4445.887794
4445.193203
4446.504358
4448.449146
4449.464942
4449.345175
4435.589481
4433.308762
4433.821779
4433.992052
4433.903524
4434.236082
4434.154640
4434.863924
4434.440437
4434.808102
4435.645346
4435.758108
4435.139210
4436.276993
4437.511147
4436.699380
4436.770298
4439.111013
4438.741834
4438.251530
4440.530660
4441.733215
4440.044955
4441.880653
4444.445767
4443.289553
4444.171184
4446.406921
4446.612001
4448.085556
4447.926240
4435.870479
4433.471072
4433.960702
4434.178389
4434.063183
4434.453855
4434.466245
4434.672096
4434.706582
4435.651200
4435.131669
4435.325710
4436.414817
4436.948350
4436.051961
4436.925217
4438.672746
4437.988743
4437.906924
4440.344299
4440.323406
4439.674821
4441.768877
4443.413205
4442.048237
4443.314136
4445.171959
4445.005583
4445.784826
4447.468782
4446.164419
4436.106467
4433.547197
4434.117594
4434.397221
4434.188586
4434.628354
4434.511298
4434.941675
4435.172597
4435.170679
4435.279960
4436.497262
4436.070297
4435.938340
4437.076668
4438.145131
4437.167591
4437.736074
4439.749522
4439.223256
4438.949743
4441.327746
4441.549005
4440.883485
4442.400394
4444.082439
4443.423709
4444.712521
4446.041581
4446.794013
4444.413793
4436.262696
4433.657472
4434.328491
4434.467518
4434.283240
4434.828021
4434.655060
4435.133972
4434.998868
4435.455513
4435.989721
4435.765077
4435.837971
4437.258249
4437.172372
4436.755308
4437.690447
4439.249636
4438.332532
4438.719454
4440.818339
4440.582534
4440.170000
4442.348856
4442.864635
4442.567182
4443.569529
4444.942401
4445.082841
4446.023968
4443.173702
4436.444542
4433.778917
4434.380171
4434.554400
4434.518438
4434.888247
4434.716230
4435.239879
4435.198250
4435.769886
4435.504207
4435.975368
4436.873301
4436.562329
4436.436602
4437.894254
4438.279081
4437.737381
4438.344430
4440.178266
4439.353297
4439.571865
4441.503975
4441.565120
4441.153712
4442.840621
4443.537277
4443.778836
4444.619609
4445.391732
4441.843698
4436.574767
4433.807494
4434.472432
4434.750526
4434.528463
4434.912000
4434.947495
4435.319814
4435.242225
4435.663060
4435.755224
4436.530398
4436.051795
4436.463158
4437.674466
4437.516648
4437.143191
4438.446998
4439.284852
4438.774865
4439.123948
4441.060095
4440.503657
4440.610229
4442.243489
4442.624199
4442.391029
4443.653654
4444.162091
4444.353149
4441.110117
4436.644091
4433.884263
4434.619614
4434.743460
4434.556966
4435.151139
4434.939518
4435.272276
4435.410207
4435.815687
4435.855364
4436.089161
4436.296335
4437.356583
4436.719638
4436.982974
4438.296867
4438.473220
4437.936852
4438.942991
4440.044458
4439.623156
4439.766211
4441.522266
4441.217757
4441.398752
4442.547887
4443.076521
4443.178598
4443.565576
4440.338150
4436.738421
4433.949162
4434.600392
4434.795311
4434.756163
4435.093812
4434.901191
4435.532452
4435.412759
4435.705066
4435.858250
4436.325076
4436.565485
4436.540110
4436.765652
4438.107814
4437.502894
4437.595666
4438.779474
4439.352910
4438.809198
4439.537484
4440.725919
4440.528580
4440.582021
4441.965175
4441.946490
4442.178977
4442.765775
4442.924470
4439.645798
4436.767687
4433.939240
4434.667924
4434.925265
4434.677651
4435.091154
4435.151475
4435.437828
4435.292093
4435.931782
4435.921811
4436.219492
4436.277823
4436.802958
4437.331762
4437.076132
4437.205374
4438.664794
4438.277332
4438.240301
4439.103343
4439.942782
4439.481628
4439.960087
4441.004446
4441.022268
4441.041809
4442.057997
4442.158442
4442.108847
4439.220122
4436.765489
4433.988963
4434.732399
4434.841341
4434.705590
4435.274072
4435.009839
4435.369500
4435.571050
4435.845587
4435.707939
4436.311191
4436.438407
4436.819224
4436.668968
4437.196751
4438.041791
4437.692163
4437.703775
4439.056541
4438.999921
4438.954363
4439.489574
4440.445623
4440.118192
4440.502695
4441.221854
4441.358698
4441.368606
4441.585137
4438.633329
4436.777997
4433.999081
4434.663497
4434.886444
4434.834319
4435.119313
4434.994841
4435.613757
4435.374308
4435.686523
4435.983929
4436.294568
4436.162722
4436.647103
4436.908347
4437.461642
4437.093511
4437.517506
4438.550177
4438.277625
4438.177483
4439.253312
4439.421821
4439.446788
4439.705096
4440.555332
4440.373230
4440.732451
4441.081729
4441.056826
4438.220527
4436.724344
4433.965914
4434.702421
4434.930495
4434.688392
4435.129195
4435.178266
4435.377894
4435.305199
4435.976803
4435.767595
4436.016833
4436.362934
4436.740680
4436.672815
4436.943140
4437.271169
4438.059305
4437.564284
4437.877577
4438.878625
4438.829255
4438.701832
4439.467726
4439.752737
4439.871289
4439.933673
4440.572573
4440.492747
4440.413006
4437.859804
4436.664664
4433.978536
4434.686683
4434.813587
4434.729756
4435.228856
4434.954725
4435.356204
4435.545497
4435.668123
4435.624551
4436.319609
4436.193838
4436.358849
4436.672840
4437.131871
4437.198641
4437.253730
4437.515901
4438.469283
4437.976444
4438.204195
4438.963706
4439.113931
4438.994636
4439.501220
4439.769607
4439.913598
4439.914355
4440.023595
4437.412607
4436.599333
4433.940215
4434.604000
4434.840908
4434.757495
4435.029227
4434.972227
4435.513473
4435.234847
4435.599784
4435.914396
4435.973663
4435.937518
4436.613222
4436.610146
4436.743801
4436.917808
4437.422588
4437.676853
4437.612135
4437.744436
4438.720467
4438.357422
4438.559125
4439.034700
4439.281339
4439.190975
4439.539183
4439.631658
4439.562961
4437.083078
4436.485689
4433.897685
4434.609895
4434.796232
4434.608269
4435.056033
4435.045763
4435.231176
4435.223923
4435.816320
4435.520110
4435.841661
4436.254753
4436.303889
4436.231572
4436.835714
4436.958928
4437.147604
4437.121688
4437.590308
4437.989056
4437.893944
4437.912937
4438.723491
4438.502895
4438.713054
4438.912752
4439.180419
4439.128997
4439.046283
4436.762130
4436.384020
4433.868776
4434.528366
4434.689170
4434.644263
4435.038227
4434.816346
4435.249722
4435.345028
4435.446460
4435.472241
4436.114779
4435.797833
4436.068794
4436.529661
4436.641864
4436.519425
4436.999273
4437.210544
4437.509907
4437.350462
4437.722392
4438.167914
4438.132327
4438.095587
4438.665478
4438.560381
4438.734885
4438.752811
4438.701016
4436.415832
4436.261930
4433.796299
4434.458757
4434.686768
4434.566219
4434.866510
4434.861304
4435.267533
4435.037571
4435.447247
4435.641065
4435.659722
4435.704019
4436.385183
4436.071949
4436.281319
4436.711421
4436.921633
4436.805083
4437.116167
4437.324653
4437.717888
4437.505824
4437.761769
4438.129693
4438.155519
4438.091609
4438.471075
4438.375007
4438.304594
4436.134932
4436.117727
4433.744618
4434.423556
4434.573057
4434.458669
4434.890000
4434.793135
4435.025179
4435.076705
4435.502526
4435.254897
4435.633557
4435.919536
4435.863045
4435.905872
4436.588681
4436.342261
4436.492923
4436.813046
4437.109393
4437.065109
4437.242508
4437.385119
4437.809340
4437.610344
4437.810293
4437.999587
4438.081401
4437.988012
4437.949621
4435.846554
4435.988196
4433.686631
4434.309214
4434.490638
4434.466093
4434.762628
4434.630462
4435.066354
4435.028675
4435.190327
4435.281624
4435.729833
4435.454535
4435.794483
4436.162449
4436.058102
4436.074943
4436.700568
4436.560091
4436.687801
4436.849515
4437.167906
4437.182284
4437.303602
4437.334867
4437.704498
4437.547631
4437.706683
4437.727667
4437.618765
4435.594980
4435.839235
4433.600414
4434.242992
4434.449941
4434.320324
4434.646289
4434.670491
4434.929595
4434.810026
4435.237412
4435.253878
4435.346296
4435.463896
4435.939434
4435.629703
4435.923752
4436.340284
4436.245208
4436.224712
4436.746431
4436.699884
4436.860268
4436.879055
4437.169010
4437.205079
4437.315185
4437.261014
4437.526416
4437.395968
4437.290275
4435.374619
4435.690083
4433.534411
4434.169747
4434.317540
4434.247099
4434.642841
4434.498345
4434.771472
4434.871787
4435.100934
4434.979197
4435.392398
4435.459844
4435.483408
4435.607805
4436.114482
4435.781702
4436.024274
4436.419437
4436.394440
4436.338987
4436.721882
4436.719375
4436.911408
4436.835078
4437.062660
4437.073859
4437.172140
4437.073873
4437.030720
4435.144304
4435.544583
4433.457069
4434.061217
4434.242847
4434.205226
4434.471584
4434.399033
4434.805236
4434.677572
4434.898965
4435.052486
4435.264203
4435.127170
4435.520196
4435.637974
4435.604195
4435.709022
4436.234818
4435.914664
4436.118925
4436.426640
4436.483521
4436.426188
4436.686591
4436.682579
4436.867623
4436.764592
4436.927941
4436.865553
4436.770872
4434.957551
4435.391375
4433.379721
4433.985031
4434.161110
4434.065835
4434.387136
4434.393767
4434.597830
4434.547473
4434.963879
4434.841559
4435.017804
4435.206310
4435.411322
4435.247460
4435.612559
4435.774742
4435.709199
4435.769043
4436.271547
4436.003412
4436.177720
4436.359002
4436.460692
4436.413478
4436.589904
4436.543585
4436.695690
4436.596873
4436.510597
4434.779896
4435.251186
4433.304246
4433.880868
4434.048520
4434.001633
4434.326197
4434.218119
4434.495959
4434.572758
4434.724315
4434.678765
4435.102799
4434.986572
4435.115942
4435.321469
4435.538865
4435.343402
4435.668490
4435.861015
4435.798890
4435.810651
4436.242320
4436.051219
4436.209582
4436.266148
4436.388838
4436.337593
4436.455655
4436.373081
4436.299510
4434.609915
4435.102383
4433.217448
4433.790173
4433.971194
4433.908825
4434.181409
4434.149433
4434.467065
4434.360038
4434.604514
4434.733250
4434.837084
4434.791486
4435.214404
4435.109549
4435.194972
4435.391835
4435.630259
4435.413863
4435.686781
4435.871627
4435.840443
4435.812807
4436.141897
4436.005601
4436.151967
4436.121502
4436.239522
4436.163898
4436.084037
4434.466851
4434.954543
4433.149409
4433.703653
4433.856569
4433.808121
4434.109535
4434.071158
4434.287380
4434.277702
4434.606481
4434.480438
4434.697173
4434.870644
4434.932534
4434.879959
4435.290960
4435.208106
4435.260107
4435.418732
4435.676572
4435.466054
4435.685437
4435.824922
4435.841885
4435.792794
4436.023789
4435.911923
4436.037927
4435.967573
4435.885203
4434.322945
4434.822425
4433.073333
4433.590533
4433.768519
4433.742804
4433.992976
4433.945968
4434.214879
4434.219143
4434.391243
4434.384549
4434.730712
4434.582741
4434.766959
4434.975155
4435.013252
4434.945102
4435.326361
4435.269619
4435.303566
4435.401045
4435.656588
4435.472819
4435.644930
4435.710182
4435.765720
4435.705344
4435.861196
4435.761245
4435.705482
4434.188133
4434.677168
4432.988262
4433.513194
4433.687840
4433.621858
4433.887678
4433.886083
4434.107325
4434.064856
4434.314206
4434.349259
4434.476288
4434.470963
4434.829593
4434.668476
4434.819463
4435.038912
4435.075518
4434.989518
4435.323227
4435.288122
4435.326742
4435.361215
4435.590261
4435.444807
4435.585756
4435.579131
4435.660305
4435.585496
4435.530528
4434.060416
4434.539873
4432.929178
4433.423409
4433.566734
4433.548321
4433.816652
4433.759085
4433.983928
4434.003334
4434.220131
4434.161525
4434.393044
4434.464233
4434.543142
4434.537571
4434.898674
4434.732605
4434.856296
4435.054665
4435.103765
4435.004676
4435.277769
4435.247820
4435.303831
4435.285042
4435.471163
4435.355255
4435.475756
4435.428509
4435.352039
4433.938733
4434.416556
4432.853049
4433.312742
4433.494732
4433.476661
4433.678502
4433.673419
4433.919491
4433.877126
4434.073617
4434.097289
4434.319634
4434.241698
4434.449679
4434.555573
4434.595563
4434.582115
4434.933050