# vtk DataFile Version 2.0
mfree iwf
ASCII

DATASET UNSTRUCTURED_GRID
POINTS 6231 float
0.000000 0.000300 0.000000
0.000000 0.000310 0.000000
0.000000 0.000320 0.000000
0.000000 0.000330 0.000000
0.000000 0.000340 0.000000
0.000000 0.000350 0.000000
0.000000 0.000360 0.000000
0.000001 0.000370 0.000000
0.000001 0.000380 0.000000
0.000001 0.000390 0.000000
0.000001 0.000400 0.000000
0.000001 0.000410 0.000000
0.000001 0.000420 0.000000
0.000001 0.000430 0.000000
0.000001 0.000440 0.000000
0.000002 0.000450 0.000000
0.000002 0.000460 0.000000
0.000002 0.000471 0.000000
0.000002 0.000480 0.000000
0.000002 0.000492 0.000000
0.000006 0.000501 0.000000
0.000789 0.000946 0.000000
0.000859 0.000987 0.000000
0.000806 0.000955 0.000000
0.000872 0.000993 0.000000
0.000893 0.000999 0.000000
0.000942 0.001007 0.000000
0.000950 0.001006 0.000000
0.000962 0.001001 0.000000
0.000975 0.000999 0.000000
0.001006 0.001002 0.000000
0.000010 0.000300 0.000000
0.000010 0.000310 0.000000
0.000010 0.000320 0.000000
0.000010 0.000330 0.000000
0.000010 0.000340 0.000000
0.000010 0.000350 0.000000
0.000010 0.000360 0.000000
0.000011 0.000370 0.000000
0.000011 0.000380 0.000000
0.000011 0.000390 0.000000
0.000011 0.000400 0.000000
0.000011 0.000410 0.000000
0.000011 0.000420 0.000000
0.000011 0.000430 0.000000
0.000011 0.000440 0.000000
0.000011 0.000450 0.000000
0.000012 0.000460 0.000000
0.000012 0.000472 0.000000
0.000013 0.000478 0.000000
0.000009 0.000492 0.000000
0.000013 0.000498 0.000000
0.000913 0.000997 0.000000
0.000928 0.000999 0.000000
0.000935 0.001000 0.000000
0.000942 0.000998 0.000000
0.000958 0.000993 0.000000
0.000969 0.000992 0.000000
0.000984 0.000989 0.000000
0.000995 0.000991 0.000000
0.001001 0.000989 0.000000
0.001003 0.000997 0.000000
0.000020 0.000300 0.000000
0.000020 0.000310 0.000000
0.000020 0.000320 0.000000
0.000020 0.000330 0.000000
0.000021 0.000340 0.000000
0.000020 0.000350 0.000000
0.000021 0.000360 0.000000
0.000021 0.000370 0.000000
0.000020 0.000380 0.000000
0.000021 0.000390 0.000000
0.000021 0.000400 0.000000
0.000022 0.000410 0.000000
0.000021 0.000420 0.000000
0.000022 0.000431 0.000000
0.000020 0.000440 0.000000
0.000023 0.000451 0.000000
0.000021 0.000460 0.000000
0.000022 0.000470 0.000000
0.000021 0.000482 0.000000
0.000024 0.000494 0.000000
0.000020 0.000497 0.000000
0.000880 0.000984 0.000000
0.000909 0.000992 0.000000
0.000919 0.000995 0.000000
0.000924 0.000993 0.000000
0.000934 0.000986 0.000000
0.000949 0.000991 0.000000
0.000976 0.000986 0.000000
0.000990 0.000986 0.000000
0.000998 0.000978 0.000000
0.001006 0.000976 0.000000
0.000030 0.000300 0.000000
0.000030 0.000310 0.000000
0.000030 0.000320 0.000000
0.000030 0.000330 0.000000
0.000030 0.000340 0.000000
0.000030 0.000350 0.000000
0.000031 0.000360 0.000000
0.000030 0.000370 0.000000
0.000032 0.000380 0.000000
0.000030 0.000390 0.000000
0.000031 0.000400 0.000000
0.000031 0.000411 0.000000
0.000031 0.000420 0.000000
0.000031 0.000430 0.000000
0.000031 0.000440 0.000000
0.000031 0.000450 0.000000
0.000031 0.000459 0.000000
0.000036 0.000473 0.000000
0.000029 0.000478 0.000000
0.000033 0.000488 0.000000
0.000032 0.000497 0.000000
0.000063 0.000500 0.000000
0.000901 0.000987 0.000000
0.000917 0.000979 0.000000
0.000945 0.000982 0.000000
0.000954 0.000975 0.000000
0.000960 0.000986 0.000000
0.000964 0.000979 0.000000
0.000975 0.000977 0.000000
0.000982 0.000976 0.000000
0.001005 0.000968 0.000000
0.000040 0.000300 0.000000
0.000040 0.000310 0.000000
0.000040 0.000320 0.000000
0.000040 0.000330 0.000000
0.000040 0.000341 0.000000
0.000041 0.000350 0.000000
0.000040 0.000360 0.000000
0.000040 0.000370 0.000000
0.000041 0.000380 0.000000
0.000040 0.000390 0.000000
0.000042 0.000400 0.000000
0.000041 0.000410 0.000000
0.000042 0.000420 0.000000
0.000041 0.000431 0.000000
0.000042 0.000439 0.000000
0.000043 0.000450 0.000000
0.000042 0.000460 0.000000
0.000037 0.000469 0.000000
0.000045 0.000477 0.000000
0.000043 0.000496 0.000000
0.000040 0.000498 0.000000
0.000699 0.000797 0.000000
0.000909 0.000979 0.000000
0.000928 0.000978 0.000000
0.000935 0.000973 0.000000
0.000943 0.000980 0.000000
0.000964 0.000970 0.000000
0.000987 0.000966 0.000000
0.000985 0.000956 0.000000
0.000995 0.000969 0.000000
0.001003 0.000958 0.000000
0.000050 0.000300 0.000000
0.000050 0.000310 0.000000
0.000050 0.000320 0.000000
0.000050 0.000329 0.000000
0.000051 0.000340 0.000000
0.000050 0.000350 0.000000
0.000050 0.000361 0.000000
0.000052 0.000371 0.000000
0.000050 0.000380 0.000000
0.000052 0.000390 0.000000
0.000051 0.000400 0.000000
0.000050 0.000411 0.000000
0.000052 0.000420 0.000000
0.000051 0.000430 0.000000
0.000053 0.000440 0.000000
0.000048 0.000451 0.000000
0.000054 0.000458 0.000000
0.000053 0.000469 0.000000
0.000056 0.000483 0.000000
0.000048 0.000488 0.000000
0.000050 0.000498 0.000000
0.000898 0.000993 0.000000
0.000855 0.000978 0.000000
0.000923 0.000973 0.000000
0.000938 0.000961 0.000000
0.000951 0.000965 0.000000
0.000969 0.000963 0.000000
0.000960 0.000958 0.000000
0.000977 0.000964 0.000000
0.000993 0.000957 0.000000
0.001000 0.000947 0.000000
0.000060 0.000300 0.000000
0.000060 0.000310 0.000000
0.000060 0.000320 0.000000
0.000061 0.000331 0.000000
0.000060 0.000339 0.000000
0.000060 0.000350 0.000000
0.000061 0.000359 0.000000
0.000060 0.000368 0.000000
0.000061 0.000380 0.000000
0.000060 0.000391 0.000000
0.000062 0.000400 0.000000
0.000060 0.000409 0.000000
0.000063 0.000419 0.000000
0.000059 0.000431 0.000000
0.000065 0.000440 0.000000
0.000060 0.000449 0.000000
0.000065 0.000460 0.000000
0.000055 0.000472 0.000000
0.000064 0.000475 0.000000
0.000068 0.000486 0.000000
0.000058 0.000496 0.000000
0.000888 0.000992 0.000000
0.000900 0.000978 0.000000
0.000917 0.000961 0.000000
0.000930 0.000963 0.000000
0.000946 0.000953 0.000000
0.000952 0.000947 0.000000
0.000980 0.000946 0.000000
0.000970 0.000953 0.000000
0.000989 0.000946 0.000000
0.000998 0.000939 0.000000
0.000070 0.000300 0.000000
0.000070 0.000310 0.000000
0.000070 0.000319 0.000000
0.000070 0.000329 0.000000
0.000071 0.000340 0.000000
0.000069 0.000351 0.000000
0.000073 0.000359 0.000000
0.000070 0.000374 0.000000
0.000081 0.000376 0.000000
0.000070 0.000389 0.000000
0.000073 0.000400 0.000000
0.000069 0.000411 0.000000
0.000074 0.000421 0.000000
0.000068 0.000429 0.000000
0.000075 0.000438 0.000000
0.000067 0.000451 0.000000
0.000077 0.000459 0.000000
0.000073 0.000470 0.000000
0.000076 0.000486 0.000000
0.000068 0.000495 0.000000
0.000076 0.000496 0.000000
0.000692 0.000774 0.000000
0.000889 0.000979 0.000000
0.000910 0.000968 0.000000
0.000930 0.000943 0.000000
0.000947 0.000963 0.000000
0.000961 0.000947 0.000000
0.000971 0.000946 0.000000
0.000966 0.000936 0.000000
0.000986 0.000936 0.000000
0.000995 0.000929 0.000000
0.000080 0.000300 0.000000
0.000080 0.000310 0.000000
0.000081 0.000321 0.000000
0.000079 0.000331 0.000000
0.000082 0.000340 0.000000
0.000079 0.000350 0.000000
0.000082 0.000362 0.000000
0.000072 0.000369 0.000000
0.000076 0.000383 0.000000
0.000079 0.000392 0.000000
0.000089 0.000396 0.000000
0.000079 0.000410 0.000000
0.000085 0.000417 0.000000
0.000078 0.000431 0.000000
0.000086 0.000445 0.000000
0.000077 0.000448 0.000000
0.000086 0.000463 0.000000
0.000074 0.000470 0.000000
0.000087 0.000473 0.000000
0.000085 0.000482 0.000000
0.000084 0.000495 0.000000
0.000878 0.000990 0.000000
0.000850 0.000983 0.000000
0.000915 0.000949 0.000000
0.000926 0.000958 0.000000
0.000938 0.000948 0.000000
0.000945 0.000938 0.000000
0.000956 0.000937 0.000000
0.000976 0.000934 0.000000
0.000983 0.000927 0.000000
0.000991 0.000919 0.000000
0.000090 0.000300 0.000000
0.000090 0.000310 0.000000
0.000090 0.000319 0.000000
0.000090 0.000329 0.000000
0.000090 0.000340 0.000000
0.000089 0.000350 0.000000
0.000091 0.000360 0.000000
0.000089 0.000369 0.000000
0.000092 0.000379 0.000000
0.000090 0.000387 0.000000
0.000085 0.000404 0.000000
0.000094 0.000410 0.000000
0.000088 0.000425 0.000000
0.000096 0.000426 0.000000
0.000089 0.000435 0.000000
0.000097 0.000455 0.000000
0.000087 0.000453 0.000000
0.000097 0.000471 0.000000
0.000106 0.000480 0.000000
0.000089 0.000494 0.000000
0.000094 0.000495 0.000000
0.000706 0.000814 0.000000
0.000883 0.000973 0.000000
0.000871 0.000979 0.000000
0.000902 0.000969 0.000000
0.000924 0.000937 0.000000
0.000950 0.000928 0.000000
0.000964 0.000928 0.000000
0.000970 0.000923 0.000000
0.000980 0.000918 0.000000
0.000988 0.000910 0.000000
0.000100 0.000300 0.000000
0.000100 0.000310 0.000000
0.000100 0.000321 0.000000
0.000100 0.000331 0.000000
0.000101 0.000340 0.000000
0.000101 0.000350 0.000000
0.000100 0.000360 0.000000
0.000101 0.000371 0.000000
0.000100 0.000381 0.000000
0.000100 0.000391 0.000000
0.000099 0.000400 0.000000
0.000104 0.000406 0.000000
0.000101 0.000418 0.000000
0.000100 0.000436 0.000000
0.000110 0.000443 0.000000
0.000096 0.000445 0.000000
0.000108 0.000460 0.000000
0.000098 0.000467 0.000000
0.000095 0.000481 0.000000
0.000106 0.000491 0.000000
0.000101 0.000494 0.000000
0.000810 0.000959 0.000000
0.000819 0.000964 0.000000
0.000844 0.000979 0.000000
0.000927 0.000948 0.000000
0.000939 0.000934 0.000000
0.000940 0.000924 0.000000
0.000961 0.000919 0.000000
0.000952 0.000915 0.000000
0.000975 0.000912 0.000000
0.000983 0.000902 0.000000
0.000110 0.000300 0.000000
0.000110 0.000310 0.000000
0.000110 0.000320 0.000000
0.000110 0.000329 0.000000
0.000111 0.000340 0.000000
0.000109 0.000351 0.000000
0.000111 0.000359 0.000000
0.000111 0.000369 0.000000
0.000111 0.000378 0.000000
0.000111 0.000389 0.000000
0.000112 0.000400 0.000000
0.000110 0.000414 0.000000
0.000116 0.000422 0.000000
0.000107 0.000427 0.000000
0.000111 0.000433 0.000000
0.000106 0.000449 0.000000
0.000115 0.000461 0.000000
0.000111 0.000471 0.000000
0.000116 0.000480 0.000000
0.000111 0.000493 0.000000
0.000119 0.000492 0.000000
0.000760 0.000911 0.000000
0.000713 0.000834 0.000000
0.000877 0.000968 0.000000
0.000899 0.000957 0.000000
0.000889 0.000954 0.000000
[...]
POINT_DATA 6231
SCALARS density float 1
LOOKUP_TABLE default
4413.212970
4427.011041
4423.757329
4422.636271
4422.766087
4422.548756
4424.236732
4425.383411
4428.065827
4428.844989
4426.104062
4430.179311
4429.329057
4431.487502
4431.109702
4439.605913
4423.262094
4432.443832
4413.285152
4424.190501
4411.227730
4422.414862
4426.378301
4430.714825
4441.321164
4418.546426
4397.220581
4428.022157
4450.639878
4452.761416
4417.646053
4418.700078
4424.748866
4424.307218
4426.804975
4426.513486
4429.426619
4425.866846
4432.279195
4429.103870
4431.305476
4426.799383
4434.148928
4423.760962
4434.019868
4416.039201
4428.238907
4411.743026
4441.483823
4463.412350
4460.030551
4416.065244
4411.847695
4416.254173
4437.114666
4506.440070
4394.730541
4399.199531
4425.819739
4398.693751
4454.318408
4440.648884
4418.847852
4427.072843
4428.322928
4424.822666
4427.445015
4428.399836
4422.288630
4429.802138
4412.100780
4432.051170
4422.531873
4432.798029
4420.792506
4441.188844
4418.577418
4472.118776
4399.930636
4453.772518
4350.975030
4451.310106
4421.226355
4419.508427
4428.165057
4412.721557
4499.704108
4332.022862
4368.013189
4415.886553
4423.550006
4424.551457
4400.893213
4426.708870
4431.068638
4425.099329
4428.814297
4431.582943
4427.320107
4431.675416
4437.817775
4430.837295
4444.278356
4410.685619
4438.227274
4421.157297
4441.253703
4403.225912
4431.011740
4395.141429
4454.361331
4372.520016
4551.657034
4372.266713
4430.997996
4455.348040
4437.918595
4479.999371
4342.436510
4488.448063
4465.472944
4412.517894
4476.534608
4433.746358
4426.749250
4426.546535
4429.906328
4436.375129
4428.291835
4435.252245
4431.837217
4423.272535
4422.614672
4418.363082
4421.527170
4448.731966
4404.903766
4444.598209
4420.321774
4451.309098
4388.636596
4508.011934
4308.688224
4419.364004
4384.764183
4432.323313
4414.154483
4434.348777
4414.566515
4479.546267
4427.033197
4410.378806
4483.374324
4442.158966
4413.207149
4427.634281
4437.014501
4430.615775
4430.687525
4429.350805
4432.271226
4425.327429
4448.890198
4433.095754
4441.140581
4427.062645
4426.238745
4418.134570
4454.386804
4371.274557
4478.738012
4361.966345
4472.064449
4358.095648
4538.988262
4381.710929
4444.840230
4429.138592
4450.520715
4410.646515
4443.087343
4450.839834
4385.613134
4400.097447
4419.821924
4418.253923
4436.201934
4435.958455
4417.643144
4442.264682
4433.100861
4441.999374
4412.041392
4429.715498
4385.930817
4441.275407
4413.926408
4440.285145
4416.618881
4431.706564
4420.699434
4464.172164
4400.166703
4520.150254
4379.731160
4481.462003
4432.255569
4416.488147
4396.099044
4410.965949
4458.981982
4463.867487
4422.065043
4404.270258
4419.961426
4423.641475
4427.039354
4429.105928
4422.620359
4435.526129
4438.422990
4397.139956
4450.786145
4403.475946
4443.982738
4392.098730
4460.415758
4393.393748
4440.471364
4402.486595
4441.360763
4436.492693
4456.331507
4443.381498
4449.817695
4447.293734
4412.887735
4390.941106
4438.484346
4455.835964
4435.569428
4425.852531
4433.422430
4425.837371
4455.568126
4439.276348
4449.450074
4412.374028
4427.836568
4431.140675
4427.755186
4409.023927
4443.943464
4433.316986
4427.389004
4452.428927
4424.303465
4426.846791
4418.714337
4436.919336
4426.317184
4437.972841
4462.738503
4386.364689
4450.034878
4450.563862
4366.675813
4464.014012
4415.070350
4433.730966
4414.632191
4413.687527
4445.307137
4377.283696
4455.054019
4427.751849
4401.824066
4433.110863
4439.553048
4429.592474
4430.993518
4420.883908
4422.386990
4438.869539
4405.994500
4445.951105
4441.267243
4453.962166
4440.597970
4440.456519
4398.584768
4426.307406
4455.297069
4416.046051
4380.151184
4439.365874
4434.206350
4425.033481
4425.524355
4414.551180
4428.141670
4428.480515
4425.391368
4482.361526
4416.386600
4390.543288
4442.961448
4445.245730
4426.656296
4413.984031
4427.902909
4420.527429
4438.781057
4433.430452
4417.725291
4441.106498
4429.390149
4404.082118
4434.814755
4396.758315
4442.907339
4447.307175
4414.124034
4390.581838
4447.910673
4453.983512
4419.452859
4469.042201
4415.433354
4438.909673
4419.542682
4422.777775
4431.767544
4422.751036
4452.674388
4462.177930
4372.903152
4400.234909
4465.771253
4450.892603
4422.806388
4427.888331
4434.038237
4432.179374
4417.120513
4434.819393
4434.046152
4420.958068
4452.169036
4431.640014
4446.785804
4405.913429
4446.602870
4404.092916
4450.119326
4427.473726
4432.594051
4462.086948
4391.538288
4460.821453
4404.260815
4408.933739
4438.060339
4439.774189
4438.001855
4397.464693
4441.489407
4450.088408
4464.998005
4410.747968
4423.868177
4454.003339
4429.645464
4431.488721
4417.953643
4437.215680
4439.436990
4412.100159
4420.440133
4440.955630
4380.928785
4461.189725
4408.101868
4414.907912
4451.593147
4438.960295
4429.073103
4376.976885
4446.548539
4397.104226
4433.342137
4430.802018
4392.332808
4442.007480
4418.712535
4431.447349
4452.734740
4454.825607
4423.002233
4340.197068
4459.175012
4388.091581
4415.486524
4431.096088
4435.656461
4428.927061
4435.576852
4408.721263
4449.480246
4444.574631
4420.465124
4458.172143
4432.504917
4428.844590
4416.725798
4419.865836
4451.981747
4416.382611
4449.107935
4392.841670
4448.999584
4501.731030
4417.057698
4437.962527
4436.068952
4421.192814
4422.510555
4432.837816
4428.488896
4442.844654
4467.507460
4473.587266
4496.213015
4453.004781
4435.719432
4439.019345
4424.156183
4429.872329
4432.495859
4423.770333
4413.075721
4405.999402
4452.393270
4393.385791
4431.154502
4436.509166
4424.073565
4418.915485
4431.817937
4393.173495
4424.126524
4504.533298
4570.338651
4382.936663
4372.387635
4416.317631
4417.713678
4445.065308
4444.705706
4375.551726
4458.233770
4418.389090
4402.625178
4404.313151
4450.050637
4432.783866
4428.780446
4434.601635
4426.822239
4432.885458
4411.933908
4432.512741
4467.698852
4407.166989
4437.033995
4430.671944
4431.486959
4439.789218
4405.260816
4470.163513
4392.513375
4489.663410
4350.749664
4330.951839
4485.356590
4392.918294
4411.399060
4436.269500
4439.917437
4482.257458
4446.220799
4420.684425
4436.765998
4404.344829
4425.335103
4411.871133
4430.756995
4428.495541
4442.802515
4421.870850
4427.926430
4443.079290
4397.320315
4414.587702
4398.935407
4459.212726
4417.974375
4386.835715
4461.009566
4402.616655
4424.531611
4448.097963
4403.857484
4488.322658
4482.984032
4418.353742
4404.344448
4425.781960
4452.583989
4407.133291
4369.000763
4468.852917
4453.361751
4423.135268
4403.293655
4431.358280
4429.064325
4436.862259
4433.308155
4417.348488
4441.784707
4426.691548
4426.228605
4435.577083
4432.483693
4438.361778
4406.908031
4467.727522
4439.182136
4411.400303
4455.613366
4427.070394
4432.673485
4395.117454
4488.782691
4359.788488
4365.518370
4426.031859
4422.632693
4440.905577
4445.951213
4399.988769
4451.000917
4438.230148
4421.982199
4468.709986
4436.522639
4439.374064
4429.900276
4436.888299
4430.090719
4442.404929
4427.423140
4424.542726
4440.906348
4394.655428
4448.971191
4448.282002
4400.823981
4420.795586
4421.351538
4438.899349
4383.330886
4466.450421
4350.673157
4457.890394
4394.728686
4445.184894
4397.573777
4431.384455
4434.154210
4433.481248
4457.200584
4403.886263
4461.163206
4455.995117
4414.173574
4410.440226
4421.794329
4430.222674
4419.606559
4432.233887
4409.784146
4445.750277
4439.057681
4417.783405
4455.498604
4410.657910
4416.385441
4429.564706
4456.789135
4414.774066
4433.730700
4433.105803
4450.426136
4370.066957
4460.153101
4433.577003
4557.275510
4381.552992
4473.503678
4425.302684
4439.081898
4440.973709
4389.788392
4456.522859
4397.942141
4405.537335
4426.304652
4419.078413
4435.826994
4431.340640
4441.512232
4436.711842
4420.207762
4428.447024
4411.553658
4440.615034
4418.592361
4424.752218
4426.382488
4417.369986
4417.245208
4441.212613
4414.624687
4455.025446
4434.142867
4472.113209
4380.426458
4386.583656
4437.748609
4410.312021
4424.534468
4456.165238
4415.744108
4400.154637
4426.666803
4444.423533
4456.903408
4413.821706
4406.719606
4435.676686
4432.519444
4417.405493
4434.237533
4426.730919
4437.995316
4434.642171
4412.332619
4420.940553
4447.889714
4409.120418
4438.707521
4440.146978
4430.662041
4404.270344
4458.227026
4431.156652
4442.120064
4396.613998
4461.524080
4409.803756
4446.456722
4415.908234
4422.314845
4433.024613
4412.337509
4389.499249
4447.117005
4364.966447
4419.335439
4443.939509
4428.001475
4434.498178
4434.222742
4440.315000
4419.882522
4417.226148
4417.408639
4444.946352
4426.451549
4418.177012
4426.176854
4423.029812
4453.590549
4397.863482
4420.824360
4446.586353
4378.098940
4411.419365
4427.520678
4443.913200
4424.170931
4426.868695
4424.155838
4463.612420
4417.096283
4451.836495
4475.238295
4366.747589
4466.182010
4381.990805
4420.784077
4429.479248
4432.886304
4426.325528
4424.943046
4423.525828
4454.380612
4423.146122
4411.955238
4407.745562
4438.452802
4424.547889
4432.247524
4434.672928
4432.585639
4443.916761
4408.200733
4453.744207
4411.277713
4412.636000
4442.784764
4416.711903
4413.655908
4456.990694
4412.996173
4431.385664
4455.065932
4430.662901
4367.275856
4440.563140
4428.846039
4448.007094
4426.344777
4431.996063
4420.442311
4438.762232
4432.855410
4404.378768
4423.672632
4437.783453
4422.137898
4423.292609
4425.304204
4416.971792
4432.443538
4412.300038
4412.405860
4422.451777
4403.793392
4463.598321
4443.752188
4492.750681
4409.480555
4418.144409
4455.825539
4419.036507
4451.456294
4436.045025
4461.434562
4424.405300
4451.672228
4423.841789
4436.377828
4424.365405
4438.587837
4429.777344
4424.078568
4426.522130
4437.206803
4442.876803
4397.132123
4441.083624
4427.784640
4417.685787
4431.068611
4441.833533
4423.836065
4427.325431
4444.920969
4404.089655
4449.403161
4365.215335
4408.242266
4433.304331
4403.962189
4450.584351
4439.216174
4421.361410
4431.241475
4429.178934
4421.860509
4422.169747
4410.930640
4418.910023
4432.158799
4433.245099
4418.536555
4440.281770
4421.045186
4421.157321
4409.883047
4446.310278
4436.554356
4411.691137
4440.429255
4430.393440
4391.612959
4434.214078
4414.927736
4450.239264
4429.987845
4470.496214
4406.598368
4445.295478
4423.305725
4436.538719
4426.636277
4379.258419
4426.149901
4429.886413
4415.476382
4445.557938
4486.541719
4422.265381
4444.734629
4433.804699
4429.636479
4429.486595
4439.415599
4419.811878
4446.572577
4424.396364
4431.506497
4397.280651
4451.271872
4408.810160
4411.579277
4413.943781
4447.563928
4397.078643
4452.945795
4400.319762
4481.100189
4404.649534
4435.391704
4421.338267
4418.730144
4432.214332
4432.645708
4413.168078
4431.920347
4419.227646
4422.518829
4384.926363
4388.300908
4428.102763
4429.072843
4430.908504
4430.466592
4423.424906
4430.375454
4439.325913
4420.495310
4430.936621
4419.275214
4436.118709
4416.051521
4435.139175
4430.775421
4442.518244
4424.443174
4427.980218
4400.678493
4447.105693
4425.407654
4428.208570
4409.628666
4435.570549
4415.971228
4429.552699
4472.034400
4385.951715
4422.357254
4445.767235
4387.452318
4439.914000
4406.902505
4428.844138
4430.631521
4425.215637
4438.771597
4441.339506
4414.013983
4434.156617
4444.014460
4420.714398
4404.637245
4420.511977
4435.735852
4426.349301
4393.915208
4442.246052
4439.201865
4407.968455
4368.175667
4388.950089
4467.435075
4437.445998
4411.803415
4408.175642
4397.293300
4452.244091
4443.922229
4436.253000
4469.537083
4449.554259
4435.536189
4456.883559
4431.111334
4431.889019
4430.492750
4422.384124
4421.116141
4441.248248
4433.424239
4406.991868
4434.854710
4435.857160
4443.670602
4398.233597
4454.715292
4446.670765
4418.608353
4426.133011
4414.506841
4491.954097
4457.393418
4434.600288
4441.339581
4424.687579
4451.429988
4419.076942
4434.626171
4436.348895
4431.084795
4433.128149
4423.573092
4395.395648
4427.459615
4428.443571
4432.904695
4435.955224
4437.884575
4439.493010
4426.809217
4428.022387
4436.913799
4436.611527
4400.957761
4435.442328
4437.996424
4425.335118
4413.639846
4433.593283
4448.577123
4390.711535
4448.947530
4393.234379
4379.953929
4430.008129
4433.128627
4425.130393
4385.431613
4468.231541
4392.633884
4425.916238
4412.704705
4470.366405
4361.331917
4420.794123
4436.078602
4433.129026
4420.729141
4421.786784
4429.927428
4429.926716
4430.353405
4414.965451
4417.871461
4465.201497
4424.830770
4426.931600
4428.466935
4452.992551
4433.246581
4435.386658
4411.009990
4392.711953
4462.875460
4462.539262
4445.233755
4400.623063
4405.805388
4424.449777
4450.009875
4431.237581
4376.402591
4457.856510
4423.208760
4464.193519
4422.008504
4437.748203
4427.636111
4441.660628
4441.069247
4418.621333
4440.677669
4414.564688
4444.181469
4409.107306
4417.869878
4398.388133
4457.454717
4418.443537
4435.443729
4391.017973
4434.680701
4451.304783
4462.634700
4333.562241
4473.693188
4460.454674
4424.826371
4487.438130
4432.163572
4455.223931
4462.208321
4440.166805
4418.073006
4388.052160
4400.726678
4436.645766
4437.207235
4425.604480
4418.029019
4412.122581
4430.299645
4428.792443
4422.939690
4442.142884
4410.998168
4448.627580
4407.789063
4438.763893
4404.357277
4438.319778
4411.700979
4446.002645
4379.927421
4442.403026
4320.676926
4499.184756
4459.800007
4421.388647
4412.451079
4521.435676
4387.891183
4440.853062
4399.910133
4463.934055
4364.848542
4433.855596
4445.817788
4427.817153
4438.613719
4430.320671
4444.167424
4427.714717
4440.802626
4413.732846
4424.154028
4407.648785
4438.130253
4410.596412
4413.689083
4407.115453
4447.291694
4392.865904
4454.131399
4388.192087
4480.649784
4457.405126
4507.683623
4422.219846
4417.669154
4363.710288
4430.459029
4405.899661
4434.521125
4465.106989
4459.667838
4454.314278
4369.797140
4456.708633
4421.345837
4425.809497
4429.787921
4414.769659
4436.165754
4445.878700
4426.442917
4420.008287
4434.150577
4421.256615
4437.527648
4452.505253
4407.338852
4434.495814
4436.136830
4437.171414
4425.601530
4433.372879
4435.509411
4507.803958
4564.780560
4431.326540
4461.601056
4418.218787
4414.216831
4467.121999
4398.230795
4415.142727
4437.381815
4434.549794
4415.716042
4424.071338
4430.049209
4423.870571
4431.584130
4405.791538
4417.280003
4422.844339
4427.588780
4425.306241
4434.053910
4424.361156
4450.299944
4402.161916
4426.377244
4429.929546
4417.772675
4445.579882
4406.954344
4403.981205
4428.617845
4390.446056
4415.213611
4419.024108
4414.431109
4425.133203
4451.038711
4372.495206
4370.352626
4498.172910
4474.084013
4418.674975
4419.825573
4431.555686
4418.477498
4415.308112
4397.148721
4428.397133
4420.679512
4410.397761
4422.566778
4419.201568
4424.250627
4448.051666
4413.178719
4440.712187
4410.575977
4460.410408
4392.051752
4452.129876
4430.570776
4451.114260
4429.993858
4449.818596
4426.693192
4435.156242
4432.379205
4470.056294
4478.458372
4439.023960
4368.439127
4442.630805
4394.487376
4423.221835
4430.288620
4418.467342
4444.462988
4444.863256
4434.768272
4444.700436
4443.228874
4416.699393
4427.350801
4419.399427
4410.749974
4416.000870
4420.653431
4421.702271
4439.626601
4441.674286
4399.686099
4443.120634
4450.302029
4427.580058
4441.719876
4431.886079
4420.945518
4461.408352
4457.375601
4411.212552
4534.908362
4364.189751
4430.273952
4425.970222
4424.845906
4435.820631
4423.884941
4421.555502
4407.458147
4405.651899
4427.762707
4435.746142
4429.802919
4430.533637
4397.536841
4427.740638
4426.683007
4419.917071
4420.812835
4439.375617
4392.263691
4424.111741
4429.641508
4446.402007
4436.600608
4443.199816
4441.761255
4439.310099
4469.066844
4440.875294
4469.705636
4419.808960
4340.733707
4398.054946
4417.397646
4422.849444
4414.561257
4424.872763
4429.974102
4445.389471
4440.176068
4424.553447
4430.157513
4425.708450
4395.119153
4429.751015
4447.201596
4415.495798
4429.213870
4423.297715
4411.176997
4476.495703
4378.919235
4428.043500
4436.958453
4423.757724
4425.992462
4452.355720
4395.162838
4391.647169
4475.621057
4421.762820
4382.314014
4449.979849
4473.743990
4412.250111
4426.576422
4421.156405
4439.249464
4410.577191
4420.399061
4403.933139
4437.617831
4412.008702
4432.235235
4446.345922
4402.474566
4444.332730
4441.780772
4420.362466
4414.015873
4452.050030
4401.094761
4403.457110
4374.309392
4423.801004
4436.016906
4446.773949
4405.949591
4444.809273
4428.207762
4449.292076
4395.121265
4386.117329
4474.394887
4362.584306
4420.568438
4424.794936
4415.383422
4432.212628
4409.766041
4452.399236
4424.135184
4470.266581
4389.614931
4459.101894
4402.354899
4422.430141
4418.347337
4435.963153
4415.148175
4406.287866
4430.065178
4412.641544
4442.864768
4470.186283
4444.291918
4436.649035
4468.073742
4438.737254
4425.759504
4462.234122
4450.202563
4456.561242
4473.025966
4461.700851
4413.442897
4408.068765
4424.876235
4419.427248
4436.376847
4414.525923
4432.170340
4378.859884
4423.019955
4427.926502
4421.218601
4409.600026
4451.155832
4401.080849
4427.150509
4414.659065
4443.036241
4436.124280
4413.042434
4416.357606
4380.751004
4484.915073
4450.185710
4438.764050
4386.796136
4447.782119
4434.153463
4395.189744
4442.559707
4394.173768
4450.842076
4427.325331
4411.077118
4423.665495
4421.164979
4439.961771
4405.697446
4440.380120
4450.491493
4431.847898
4406.324581
4417.805508
4452.892435
4422.872271
4439.818018
4404.187074
4441.368826
4459.677003
4402.609846
4404.844229
4457.099883
4381.275972
4436.563885
4416.438806
4397.845056
4445.428748
4397.124478
4437.155516
4439.793911
4420.659517
4399.084088
4438.063812
4387.745525
4467.440082
4428.388587
4431.122060
4417.609517
4444.838047
4405.877020
4436.702864
4426.983274
4416.737998
4417.447718
4439.858511
4426.101593
4429.637700
4424.041089
4424.513753
4461.065510
4416.390602
4444.217910
4470.891473
4422.974559
4330.911488
4400.064295
4440.221910
4409.905589
4419.451621
4432.158887
4434.644365
4450.693506
4353.192798
4414.996469
4412.158009
4367.331575
4430.457023
4439.208904
4413.794661
4436.190528
4424.177301
4410.276518
4444.905646
4434.326161
4422.993407
4417.374964
4428.631248
4450.025671
4430.888629
4387.272553
4452.726639
4376.719000
4434.458006
4476.170209
4371.719356
4547.737787
4384.733914
4428.279005
4388.083920
4431.806691
4409.337069
4429.268772
4439.263837
4446.733506
4487.107595
4401.779346
4433.829339
4428.040866
4430.419193
4429.874007
4419.856882
4420.546847
4423.588736
4392.457634
4432.977983
4406.217995
4419.225400
4441.459168
4459.871830
4420.931969
4395.582202
4456.246484
4469.880999
4448.584384
4420.931919
4424.699395
4424.129153
4497.757306
4488.023539
4466.780854
4414.928655
4454.964371
4426.125366
4414.987557
4438.741058
4458.572322
4447.361791
4482.517611
4432.837507
4421.648415
4442.105868
4427.735507
4432.060769
4431.907905
4457.096733
4415.567357
4409.346241
4427.356514
4410.709260
4392.983915
4407.479215
4447.953250
4418.197309
4449.765420
4383.215259
4415.666034
4412.493081
4440.795191
4680.346042
4466.154905
4483.036474
4473.479752
4440.725885
4450.630531
4444.738476
4383.901573
4372.132075
4337.686403
4385.948866
4435.841421
4431.105276
4420.952513
4415.236769
4438.646478
4411.570718
4434.755715
4408.651816
4457.062126
4453.367805
4400.504677
4455.319398
4411.044369
4402.762237
4440.528021
4446.335665
4422.020968
4447.225337
4413.184355
4429.054170
4446.331509
4414.819986
4452.859741
4419.432202
4442.003388
4428.228648
4436.248804
4453.927528
4470.648729
4423.580231
4454.890968
4429.395279
4416.555556
4440.687280
4420.570600
4426.516644
4419.568811
4420.789471
4436.439615
4424.230736
4428.443840
4402.766571
4444.721689
4426.615894
4400.805701
4417.064324
4415.561362
4441.737866
4429.429390
4388.974219
4408.023443
4429.275420
4453.108686
4446.812027
4414.866405
4407.164657
4426.071831
4436.455086
4380.459630
4464.771582
4411.334876
4419.750532
4430.540018
4424.520328
4433.174921
4454.595163
4430.390768
4417.243637
4433.183008
4431.999552
4436.084225
4402.582057
4433.421381
4426.005412
4427.638091
4461.182614
4423.286194
4461.528085
4428.185024
4462.657619
4474.732211
4383.667861
4428.903397
4521.285784
4436.840614
4402.605979
4458.894861
4445.348561
4422.891182
4459.427221
4426.261963
4433.909628
4389.821868
4424.016384
4442.536706
4399.703311
4399.959697
4443.049768
4440.015815
4424.065401
4421.476454
4436.547489
4423.487521
4426.116858
4418.289795
4413.192772
4437.325493
4420.888345
4442.048987
4401.245846
4461.407325