# vtk DataFile Version 2.0
mfree iwf
ASCII

DATASET UNSTRUCTURED_GRID
POINTS 6231 float
0.000000 0.000300 0.000000
0.000000 0.000310 0.000000
0.000000 0.000320 0.000000
0.000000 0.000330 0.000000
0.000000 0.000340 0.000000
0.000001 0.000350 0.000000
0.000001 0.000360 0.000000
0.000001 0.000370 0.000000
0.000001 0.000380 0.000000
0.000001 0.000391 0.000000
0.000001 0.000401 0.000000
0.000001 0.000411 0.000000
0.000001 0.000421 0.000000
0.000001 0.000431 0.000000
0.000002 0.000441 0.000000
0.000002 0.000451 0.000000
0.000002 0.000461 0.000000
0.000002 0.000471 0.000000
0.000002 0.000480 0.000000
0.000002 0.000492 0.000000
0.000006 0.000501 0.000000
0.000233 0.000583 0.000000
0.000234 0.000655 0.000000
0.000233 0.000599 0.000000
0.000235 0.000669 0.000000
0.000239 0.000692 0.000000
0.000256 0.000738 0.000000
0.000259 0.000743 0.000000
0.000269 0.000752 0.000000
0.000277 0.000763 0.000000
0.000301 0.000794 0.000000
0.000010 0.000300 0.000000
0.000010 0.000310 0.000000
0.000010 0.000320 0.000000
0.000010 0.000330 0.000000
0.000010 0.000340 0.000000
0.000011 0.000350 0.000000
0.000011 0.000360 0.000000
0.000011 0.000370 0.000000
0.000011 0.000380 0.000000
0.000011 0.000390 0.000000
0.000011 0.000400 0.000000
0.000011 0.000411 0.000000
0.000011 0.000420 0.000000
0.000011 0.000430 0.000000
0.000012 0.000440 0.000000
0.000012 0.000451 0.000000
0.000012 0.000460 0.000000
0.000012 0.000472 0.000000
0.000013 0.000478 0.000000
0.000010 0.000492 0.000000
0.000013 0.000498 0.000000
0.000249 0.000706 0.000000
0.000254 0.000718 0.000000
0.000258 0.000727 0.000000
0.000262 0.000732 0.000000
0.000275 0.000747 0.000000
0.000280 0.000755 0.000000
0.000289 0.000766 0.000000
0.000294 0.000775 0.000000
0.000298 0.000781 0.000000
0.000298 0.000789 0.000000
0.000020 0.000300 0.000000
0.000020 0.000310 0.000000
0.000020 0.000320 0.000000
0.000020 0.000330 0.000000
0.000021 0.000340 0.000000
0.000020 0.000350 0.000000
0.000021 0.000360 0.000000
0.000021 0.000370 0.000000
0.000020 0.000380 0.000000
0.000022 0.000390 0.000000
0.000021 0.000400 0.000000
0.000022 0.000410 0.000000
0.000021 0.000420 0.000000
0.000023 0.000431 0.000000
0.000020 0.000440 0.000000
0.000023 0.000451 0.000000
0.000021 0.000460 0.000000
0.000022 0.000470 0.000000
0.000021 0.000482 0.000000
0.000024 0.000494 0.000000
0.000020 0.000497 0.000000
0.000246 0.000674 0.000000
0.000251 0.000698 0.000000
0.000253 0.000711 0.000000
0.000260 0.000718 0.000000
0.000276 0.000723 0.000000
0.000276 0.000739 0.000000
0.000289 0.000757 0.000000
0.000295 0.000769 0.000000
0.000307 0.000776 0.000000
0.000312 0.000782 0.000000
0.000030 0.000300 0.000000
0.000030 0.000310 0.000000
0.000030 0.000320 0.000000
0.000030 0.000330 0.000000
0.000030 0.000340 0.000000
0.000031 0.000350 0.000000
0.000030 0.000360 0.000000
0.000030 0.000371 0.000000
0.000031 0.000380 0.000000
0.000031 0.000390 0.000000
0.000031 0.000400 0.000000
0.000032 0.000411 0.000000
0.000031 0.000420 0.000000
0.000032 0.000430 0.000000
0.000031 0.000440 0.000000
0.000031 0.000450 0.000000
0.000032 0.000459 0.000000
0.000037 0.000473 0.000000
0.000030 0.000478 0.000000
0.000033 0.000488 0.000000
0.000032 0.000497 0.000000
0.000063 0.000500 0.000000
0.000258 0.000697 0.000000
0.000264 0.000708 0.000000
0.000272 0.000731 0.000000
0.000289 0.000735 0.000000
0.000283 0.000742 0.000000
0.000295 0.000749 0.000000
0.000299 0.000757 0.000000
0.000307 0.000765 0.000000
0.000319 0.000776 0.000000
0.000040 0.000300 0.000000
0.000040 0.000310 0.000000
0.000040 0.000320 0.000000
0.000040 0.000330 0.000000
0.000040 0.000340 0.000000
0.000040 0.000350 0.000000
0.000041 0.000360 0.000000
0.000041 0.000369 0.000000
0.000041 0.000380 0.000000
0.000040 0.000390 0.000000
0.000042 0.000399 0.000000
0.000041 0.000410 0.000000
0.000042 0.000420 0.000000
0.000041 0.000431 0.000000
0.000042 0.000439 0.000000
0.000043 0.000450 0.000000
0.000043 0.000460 0.000000
0.000037 0.000470 0.000000
0.000045 0.000478 0.000000
0.000043 0.000497 0.000000
0.000040 0.000498 0.000000
0.000233 0.000532 0.000000
0.000269 0.000697 0.000000
0.000273 0.000710 0.000000
0.000279 0.000717 0.000000
0.000283 0.000726 0.000000
0.000299 0.000736 0.000000
0.000308 0.000752 0.000000
0.000316 0.000757 0.000000
0.000317 0.000766 0.000000
0.000326 0.000771 0.000000
0.000050 0.000300 0.000000
0.000050 0.000310 0.000000
0.000050 0.000319 0.000000
0.000050 0.000330 0.000000
0.000051 0.000340 0.000000
0.000050 0.000350 0.000000
0.000051 0.000360 0.000000
0.000049 0.000371 0.000000
0.000052 0.000380 0.000000
0.000050 0.000390 0.000000
0.000053 0.000400 0.000000
0.000049 0.000411 0.000000
0.000054 0.000420 0.000000
0.000051 0.000430 0.000000
0.000053 0.000440 0.000000
0.000048 0.000451 0.000000
0.000055 0.000459 0.000000
0.000053 0.000470 0.000000
0.000056 0.000483 0.000000
0.000049 0.000488 0.000000
0.000050 0.000498 0.000000
0.000246 0.000690 0.000000
0.000239 0.000646 0.000000
0.000278 0.000703 0.000000
0.000290 0.000716 0.000000
0.000296 0.000727 0.000000
0.000301 0.000742 0.000000
0.000309 0.000735 0.000000
0.000314 0.000746 0.000000
0.000324 0.000758 0.000000
0.000333 0.000763 0.000000
0.000060 0.000300 0.000000
0.000060 0.000310 0.000000
0.000061 0.000321 0.000000
0.000059 0.000330 0.000000
0.000062 0.000339 0.000000
0.000059 0.000350 0.000000
0.000062 0.000360 0.000000
0.000060 0.000369 0.000000
0.000063 0.000381 0.000000
0.000059 0.000390 0.000000
0.000063 0.000399 0.000000
0.000059 0.000409 0.000000
0.000064 0.000419 0.000000
0.000058 0.000431 0.000000
0.000067 0.000441 0.000000
0.000060 0.000449 0.000000
0.000066 0.000460 0.000000
0.000056 0.000471 0.000000
0.000064 0.000475 0.000000
0.000068 0.000486 0.000000
0.000059 0.000496 0.000000
0.000243 0.000683 0.000000
0.000259 0.000689 0.000000
0.000283 0.000701 0.000000
0.000291 0.000707 0.000000
0.000298 0.000717 0.000000
0.000308 0.000726 0.000000
0.000320 0.000737 0.000000
0.000324 0.000745 0.000000
0.000332 0.000751 0.000000
0.000340 0.000757 0.000000
0.000070 0.000300 0.000000
0.000070 0.000310 0.000000
0.000070 0.000319 0.000000
0.000070 0.000330 0.000000
0.000071 0.000341 0.000000
0.000069 0.000350 0.000000
0.000073 0.000360 0.000000
0.000068 0.000371 0.000000
0.000073 0.000378 0.000000
0.000070 0.000390 0.000000
0.000073 0.000401 0.000000
0.000069 0.000411 0.000000
0.000075 0.000421 0.000000
0.000067 0.000429 0.000000
0.000074 0.000437 0.000000
0.000066 0.000452 0.000000
0.000078 0.000459 0.000000
0.000072 0.000470 0.000000
0.000076 0.000486 0.000000
0.000068 0.000496 0.000000
0.000076 0.000496 0.000000
0.000233 0.000518 0.000000
0.000257 0.000679 0.000000
0.000274 0.000689 0.000000
0.000298 0.000705 0.000000
0.000308 0.000715 0.000000
0.000317 0.000722 0.000000
0.000321 0.000730 0.000000
0.000332 0.000736 0.000000
0.000339 0.000744 0.000000
0.000347 0.000750 0.000000
0.000080 0.000300 0.000000
0.000080 0.000310 0.000000
0.000080 0.000321 0.000000
0.000081 0.000331 0.000000
0.000080 0.000339 0.000000
0.000081 0.000349 0.000000
0.000079 0.000360 0.000000
0.000081 0.000369 0.000000
0.000082 0.000382 0.000000
0.000078 0.000391 0.000000
0.000084 0.000398 0.000000
0.000079 0.000409 0.000000
0.000083 0.000417 0.000000
0.000080 0.000432 0.000000
0.000087 0.000446 0.000000
0.000077 0.000448 0.000000
0.000085 0.000464 0.000000
0.000075 0.000470 0.000000
0.000087 0.000473 0.000000
0.000086 0.000483 0.000000
0.000084 0.000495 0.000000
0.000240 0.000672 0.000000
0.000233 0.000645 0.000000
0.000286 0.000691 0.000000
0.000297 0.000694 0.000000
0.000309 0.000706 0.000000
0.000319 0.000713 0.000000
0.000328 0.000718 0.000000
0.000337 0.000730 0.000000
0.000345 0.000737 0.000000
0.000354 0.000742 0.000000
0.000090 0.000300 0.000000
0.000090 0.000310 0.000000
0.000090 0.000320 0.000000
0.000090 0.000329 0.000000
0.000090 0.000340 0.000000
0.000091 0.000351 0.000000
0.000090 0.000360 0.000000
0.000092 0.000370 0.000000
0.000089 0.000379 0.000000
0.000092 0.000389 0.000000
0.000091 0.000402 0.000000
0.000091 0.000411 0.000000
0.000089 0.000423 0.000000
0.000096 0.000428 0.000000
0.000088 0.000435 0.000000
0.000097 0.000456 0.000000
0.000088 0.000453 0.000000
0.000098 0.000471 0.000000
0.000106 0.000480 0.000000
0.000089 0.000495 0.000000
0.000095 0.000495 0.000000
0.000233 0.000541 0.000000
0.000257 0.000673 0.000000
0.000248 0.000664 0.000000
0.000269 0.000684 0.000000
0.000310 0.000698 0.000000
0.000326 0.000707 0.000000
0.000334 0.000720 0.000000
0.000344 0.000723 0.000000
0.000352 0.000730 0.000000
0.000361 0.000735 0.000000
0.000100 0.000300 0.000000
0.000100 0.000310 0.000000
0.000100 0.000320 0.000000
0.000101 0.000331 0.000000
0.000101 0.000340 0.000000
0.000100 0.000349 0.000000
0.000101 0.000359 0.000000
0.000100 0.000371 0.000000
0.000101 0.000380 0.000000
0.000102 0.000390 0.000000
0.000099 0.000399 0.000000
0.000103 0.000408 0.000000
0.000102 0.000418 0.000000
0.000101 0.000435 0.000000
0.000110 0.000443 0.000000
0.000096 0.000445 0.000000
0.000107 0.000460 0.000000
0.000098 0.000466 0.000000
0.000094 0.000481 0.000000
0.000107 0.000491 0.000000
0.000101 0.000494 0.000000
0.000233 0.000603 0.000000
0.000233 0.000613 0.000000
0.000233 0.000638 0.000000
0.000305 0.000691 0.000000
0.000318 0.000697 0.000000
0.000326 0.000701 0.000000
0.000339 0.000710 0.000000
0.000346 0.000712 0.000000
0.000356 0.000723 0.000000
0.000367 0.000727 0.000000
0.000110 0.000300 0.000000
0.000110 0.000310 0.000000
0.000110 0.000321 0.000000
0.000110 0.000329 0.000000
0.000110 0.000340 0.000000
0.000111 0.000351 0.000000
0.000111 0.000361 0.000000
0.000110 0.000369 0.000000
0.000112 0.000379 0.000000
0.000110 0.000390 0.000000
0.000113 0.000400 0.000000
0.000110 0.000413 0.000000
0.000117 0.000424 0.000000
0.000106 0.000426 0.000000
0.000112 0.000434 0.000000
0.000107 0.000449 0.000000
0.000116 0.000461 0.000000
0.000111 0.000471 0.000000
0.000116 0.000480 0.000000
0.000111 0.000493 0.000000
0.000119 0.000492 0.000000
0.000234 0.000565 0.000000
0.000233 0.000559 0.000000
0.000257 0.000663 0.000000
0.000279 0.000681 0.000000
0.000279 0.000673 0.000000
[...]
POINT_DATA 6231
SCALARS density float 1
LOOKUP_TABLE default
4397.845590
4425.535169
4418.584371
4419.861247
4424.853464
4423.185878
4425.132668
4427.299682
4429.549438
4429.526420
4424.617089
4428.319148
4429.401566
4430.853929
4430.249407
4439.769649
4422.770997
4433.016075
4412.880238
4423.474379
4411.497152
4660.847264
4422.595732
4450.834999
4433.403374
4438.216947
4412.419179
4428.824083
4437.031364
4447.407294
4417.856228
4406.919286
4421.173971
4420.695333
4428.095649
4424.881305
4426.903781
4423.651153
4421.790445
4425.395022
4427.839171
4426.782805
4436.604955
4426.088136
4434.004883
4416.201932
4429.571782
4410.200355
4441.302283
4462.307523
4460.461543
4414.686570
4404.768102
4384.494073
4419.251618
4460.533020
4416.676489
4394.835177
4422.947332
4409.616316
4427.503972
4463.389244
4414.021269
4421.141384
4424.584667
4423.761252
4414.873306
4426.336066
4426.584106
4438.211471
4421.849588
4428.810970
4428.654470
4427.666766
4413.655949
4443.581721
4417.590344
4472.234772
4399.575644
4453.649098
4352.601631
4451.186311
4419.566009
4425.081248
4403.999088
4389.021613
4466.260901
4402.164881
4453.020317
4456.261309
4416.717711
4440.890488
4398.286283
4414.457863
4422.276692
4425.847844
4418.610674
4436.836757
4433.034155
4415.236800
4428.040627
4416.002187
4443.128056
4409.408765
4442.622970
4426.043568
4442.514968
4400.043537
4432.128889
4395.465185
4456.007463
4371.691563
4552.700091
4371.218193
4430.371006
4503.131556
4507.809330
4359.519151
4367.654798
4468.636435
4418.009012
4431.893679
4477.710407
4446.536534
4424.439903
4430.565516
4429.159951
4428.950540
4425.402041
4418.658209
4432.527894
4440.169139
4418.005303
4439.426286
4403.772419
4451.469643
4394.447982
4442.265395
4419.310470
4450.823313
4383.458150
4507.034830
4311.534409
4419.582779
4385.029254
4543.347001
4343.504114
4355.851252
4422.328480
4488.652584
4454.576107
4396.112885
4443.236084
4363.654293
4430.468078
4434.521245
4423.184020
4417.357715
4433.827114
4421.423630
4439.909216
4418.749178
4425.248346
4422.488967
4438.290837
4428.004649
4440.491618
4404.327219
4469.838272
4358.125590
4481.104863
4354.613608
4481.971268
4364.727113
4539.046341
4381.698266
4423.848879
4404.389956
4517.120619
4415.284579
4396.333573
4447.233703
4404.543439
4401.418083
4445.219195
4413.691131
4420.109337
4429.637422
4433.236085
4435.615940
4419.964309
4438.692261
4420.151532
4437.572219
4422.073102
4429.503457
4420.308148
4434.199755
4429.923467
4428.733443
4422.799052
4471.035246
4400.585998
4516.036063
4364.159606
4485.706432
4430.049904
4416.156716
4379.167910
4460.309963
4407.883050
4444.280673
4435.053250
4460.585124
4441.619127
4406.720684
4441.056914
4421.461134
4435.636420
4423.925846
4413.644282
4442.658812
4423.346161
4432.202447
4433.633186
4413.260760
4432.686879
4420.152799
4421.681961
4423.730940
4429.257929
4453.930161
4461.602010
4443.970809
4463.411368
4446.170760
4413.111828
4384.835268
4622.725367
4460.610999
4464.118496
4456.501179
4452.127804
4435.351298
4410.834060
4429.084421
4412.771154
4419.625192
4425.341300
4423.955771
4417.510224
4440.735594
4434.095609
4410.327673
4442.296867
4419.840172
4442.144662
4436.460744
4400.799792
4430.008392
4421.436593
4421.973878
4465.731410
4382.177131
4454.095438
4447.821875
4358.981095
4471.686712
4411.375158
4421.753944
4464.323375
4377.578720
4452.033430
4408.507970
4422.613295
4445.554664
4440.085141
4432.345012
4428.806850
4426.814412
4436.931467
4439.951382
4423.516254
4409.058828
4441.588695
4423.963152
4420.524439
4441.863386
4406.256090
4446.410950
4414.865492
4416.085249
4460.519645
4415.998048
4380.882685
4441.785884
4434.624721
4428.844146
4425.528898
4411.718255
4545.664243
4446.568067
4417.589293
4461.701331
4434.672713
4449.370540
4464.033601
4401.435060
4420.922997
4422.981848
4434.374576
4425.580227
4412.587724
4430.063241
4446.106676
4434.537878
4414.900134
4426.617419
4425.499615
4428.872481
4443.624646
4422.052858
4422.432707
4391.973492
4448.872973
4438.860006
4413.980368
4470.937496
4426.410124
4434.038251
4416.318900
4437.005201
4555.780031
4373.601751
4421.007972
4447.727291
4459.256326
4425.764451
4454.654177
4432.189121
4406.889302
4427.574034
4423.462545
4444.729597
4437.846236
4405.642243
4413.815330
4444.954096
4442.426125
4410.345044
4433.278646
4402.430004
4449.958626
4402.956319
4440.473780
4425.097936
4441.216983
4470.965594
4389.258559
4460.512619
4407.764929
4418.970601
4380.659727
4668.681406
4411.494842
4436.025793
4408.736767
4435.408165
4464.217129
4457.673331
4416.153089
4420.872240
4434.797436
4425.175944
4427.142323
4406.563468
4440.472482
4454.991039
4398.782084
4417.584460
4434.272918
4438.924208
4416.177112
4445.879172
4424.718922
4439.859280
4406.991505
4372.367021
4423.566976
4393.214981
4414.804533
4441.148015
4398.677498
4463.569415
4452.899841
4403.002157
4425.674291
4447.019899
4365.946089
4448.037659
4382.878144
4428.321676
4406.774103
4424.528396
4428.285573
4422.134339
4442.515834
4427.643170
4402.550352
4443.119148
4440.129891
4424.411891
4404.060556
4421.305144
4407.631266
4431.287600
4430.035123
4400.880688
4454.105908
4430.199766
4448.429457
4483.715864
4424.105405
4461.504756
4402.943790
4398.552969
4367.874805
4444.927009
4435.474340
4409.056087
4454.229418
4435.108136
4465.765857
4409.652157
4419.035532
4445.622047
4439.404111
4405.969909
4419.140031
4433.526272
4445.229405
4395.556852
4434.128412
4431.259128
4434.431554
4435.021461
4416.955920
4404.919383
4446.427607
4385.465248
4397.514345
4492.897705
4570.704742
4394.297667
4375.928834
4417.218487
4453.041068
4448.212278
4598.346231
4377.010466
4463.098631
4440.976614
4453.752256
4423.693422
4437.799437
4433.939653
4426.470653
4410.661797
4445.066499
4440.839273
4403.641280
4409.635886
4447.868868
4438.408773
4391.653552
4426.185529
4408.244384
4442.545985
4410.666924
4435.352865
4414.709122
4486.080801
4361.525949
4334.993866
4510.163791
4396.286404
4448.019144
4488.363215
4391.759568
4436.996941
4347.683925
4452.246887
4440.890662
4405.000183
4411.872324
4414.769626
4428.394333
4422.919458
4437.534700
4447.042059
4397.420271
4444.908162
4438.562817
4403.273052
4409.122940
4446.340482
4441.353460
4419.144452
4426.996384
4392.364035
4431.707563
4423.194753
4407.521732
4494.853343
4483.834050
4424.683682
4407.473929
4423.131001
4459.850432
4444.211319
4482.011808
4431.275041
4463.956229
4446.044502
4413.103841
4443.786466
4416.909182
4428.375763
4425.007017
4426.372165
4398.865402
4443.639135
4449.225326
4392.713094
4442.136192
4431.176643
4416.423647
4395.713143
4426.872278
4427.582015
4455.091711
4396.892295
4440.689717
4402.942124
4468.222393
4327.869038
4361.102686
4429.741124
4402.545803
4448.116492
4507.859762
4424.861242
4469.741776
4505.210548
4378.854470
4441.837605
4431.418192
4418.045913
4422.281499
4425.792226
4426.297425
4442.451235
4437.803209
4393.946599
4443.362552
4454.591229
4386.759756
4432.309059
4427.598938
4441.948168
4389.254851
4426.907389
4391.409368
4454.536159
4341.332749
4474.345690
4396.506327
4449.604193
4400.329462
4411.191932
4430.182350
4477.674606
4499.465508
4415.541918
4433.291121
4433.447651
4425.817905
4417.091501
4414.762335
4420.663602
4440.471069
4427.737982
4417.439560
4402.126638
4447.430935
4443.329917
4385.396351
4451.230289
4452.849331
4373.100353
4441.877588
4409.223866
4450.741369
4419.367078
4439.941380
4449.150907
4471.204799
4430.420487
4581.015832
4387.165003
4459.046005
4497.898239
4441.322643
4421.575103
4387.601779
4446.245839
4428.751130
4457.403276
4433.050288
4401.221295
4431.257156
4428.502174
4408.741019
4439.303920
4445.436433
4419.309443
4396.626872
4446.107429
4439.749867
4390.253700
4464.208178
4431.253123
4394.067100
4424.936690
4396.603811
4412.712429
4390.595142
4465.682076
4364.391888
4397.466502
4540.829759
4446.802109
4495.205134
4482.805964
4424.789717
4441.064818
4447.059867
4445.714248
4444.827512
4415.048901
4411.186716
4424.207728
4424.648334
4440.704213
4436.491175
4396.078390
4425.565076
4443.864521
4432.688594
4385.830299
4435.945588
4443.199305
4383.217140
4443.833584
4425.598843
4408.476152
4470.192099
4395.160748
4466.865763
4398.002572
4491.309559
4394.462721
4450.249001
4511.212974
4395.292228
4439.873776
4417.072735
4427.317422
4457.311610
4409.066006
4415.037743
4429.289535
4428.307355
4420.650739
4427.083628
4407.359315
4451.287386
4444.533222
4396.039479
4408.157306
4444.949336
4443.766531
4374.088938
4455.051662
4443.178455
4390.956239
4438.339541
4390.858021
4383.915272
4446.104172
4399.973782
4464.083591
4409.117765
4480.408748
4483.275518
4476.615236
4468.064292
4472.141442
4475.096924
4419.810313
4479.311509
4401.525854
4446.549189
4421.859009
4423.111452
4427.688291
4433.614371
4428.792067
4395.444416
4445.995885
4450.735706
4394.018801
4407.477088
4445.972155
4434.070561
4368.266754
4473.528843
4399.787025
4430.323895
4435.197137
4400.416123
4446.598245
4450.188924
4396.700082
4474.008379
4453.037901
4499.429808
4467.735430
4443.391375
4458.837094
4427.781931
4456.839264
4409.045286
4432.390021
4416.722821
4441.876678
4430.906045
4418.844971
4409.917420
4444.713239
4435.634355
4390.412361
4436.963782
4440.530568
4406.893091
4394.673080
4435.273768
4440.018860
4372.439470
4454.303585
4430.794633
4374.030200
4466.240738
4396.837835
4452.413259
4447.712800
4435.853312
4463.165666
4450.600830
4456.285840
4429.562737
4446.274580
4436.307061
4431.292015
4431.105344
4432.174735
4432.152116
4402.771892
4445.945609
4440.713416
4413.419073
4398.746386
4449.970781
4447.473004
4386.726079
4416.650081
4434.974712
4414.287739
4390.587256
4449.173593
4383.084540
4447.549099
4445.424903
4409.817833
4458.031667
4439.335254
4449.086893
4479.132900
4448.960192
4440.509859
4439.689129
4464.554283
4457.708343
4444.628024
4434.807679
4410.037203
4428.525560
4427.859244
4441.354858
4442.061098
4395.426065
4440.578678
4444.672876
4412.879445
4393.184166
4444.337564
4453.529276
4386.110994
4408.646382
4430.141266
4444.170534
4377.045338
4437.226449
4418.222840
4415.343734
4461.303484
4459.290394
4434.671527
4430.760755
4454.336697
4440.391882
4458.362185
4410.480884
4458.244323
4467.318334
4419.644044
4431.318550
4426.098209
4423.223026
4428.046241
4407.049838
4447.982190
4447.662558
4395.004288
4427.033442
4442.043526
4426.629913
4390.378966
4435.923797
4448.310049
4401.703928
4412.707899
4449.796192
4421.038131
4419.192452
4454.464004
4403.944601
4407.783991
4468.740356
4460.245548
4454.662245
4465.975164
4420.733364
4450.516763
4399.207529
4471.638325
4409.602251
4387.867454
4426.354193
4431.077603
4431.271551
4434.837874
4438.000242
4394.260274
4448.945330
4447.709417
4399.469146
4411.147315
4445.981235
4438.533858
4381.376638
4423.903005
4429.060480
4449.134878
4383.761854
4444.727091
4430.273489
4455.459752
4451.155741
4413.443202
4468.698011
4411.731504
4432.441754
4448.085469
4448.429760
4411.712129
4405.998983
4470.685275
4444.884723
4424.059213
4432.454718
4428.386276
4422.159835
4415.298697
4440.572142
4444.608719
4388.331522
4449.878020
4447.870101
4397.068698
4412.644227
4442.307095
4451.620949
4405.013931
4421.974573
4439.546277
4412.157601
4436.189922
4426.329193
4447.112962
4414.216337
4445.520170
4421.944689
4468.129383
4451.013803
4460.061780
4427.801198
4453.814546
4440.076279
4505.729824
4430.156650
4431.264093
4422.810026
4440.205233
4445.577226
4418.464034
4399.783157
4446.721724
4435.914612
4397.679208
4445.722356
4433.592905
4409.540066
4386.457073
4427.324561
4443.960559
4408.058388
4419.519894
4461.264631
4429.369629
4422.205895
4430.292260
4448.388085
4410.300731
4435.704566
4424.274871
4451.247788
4478.028124
4459.408041
4451.665790
4384.748326
4433.089682
4433.649873
4435.389884
4427.932926
4405.273581
4442.257315
4439.679532
4429.361780
4406.766091
4432.275327
4448.972826
4397.664250
4423.886270
4452.381760
4437.219775
4398.326539
4428.602505
4420.238456
4408.076988
4447.871128
4449.069375
4433.671712
4446.263070
4449.876923
4458.386377
4414.695250
4403.611686
4466.921360
4428.756489
4457.345524
4416.668041
4435.313058
4428.154726
4423.281168
4437.585386
4448.796636
4435.154499
4412.996297
4409.636187
4440.688632
4435.729468
4399.132546
4445.339789
4440.621326
4390.795656
4399.179558
4433.307797
4443.112013
4411.406900
4436.104172
4426.884408
4413.710167
4440.037991
4419.010989
4437.059609
4440.174060
4436.041418
4438.862327
4463.590095
4432.086344
4466.493119
4460.977493
4435.605781
4421.195913
4452.529573
4410.317024
4425.796943
4406.133960
4446.626755
4453.602734
4413.141742
4408.032669
4439.347654
4434.174137
4406.879767
4441.970090
4445.220013
4423.091366
4403.707786
4424.562155
4402.333391
4431.811694
4425.444255
4420.047317
4433.469115
4448.505865
4439.744430
4439.143022
4430.452949
4462.329065
4442.653319
4469.967442
4451.184047
4434.972223
4426.447659
4444.818871
4415.427106
4439.132915
4449.292751
4410.212153
4395.160204
4439.652985
4442.279498
4421.353006
4409.789103
4427.544599
4441.500562
4396.553706
4403.419041
4437.588431
4444.805034
4387.288748
4462.386890
4437.458645
4430.637367
4439.505303
4409.638968
4452.594353
4449.524440
4444.553075
4431.846926
4460.488674
4462.217310
4471.909680
4443.905636
4428.912334
4418.912006
4443.468711
4420.062091
4406.441607
4455.108531
4446.041302
4424.447449
4416.777196
4421.603051
4447.454230
4433.897293
4411.262126
4446.792708
4444.093686
4420.856218
4406.621026
4457.438554
4367.940102
4461.667024
4428.928656
4447.315183
4441.564699
4428.399572
4437.269342
4457.594770
4468.042790
4489.310845
4421.346824
4467.308166
4420.253393
4426.179244
4444.605517
4426.847445
4429.699172
4450.189377
4430.874011
4401.651076
4437.690285
4419.209197
4446.736646
4422.852612
4417.375664
4443.165224
4427.314670
4389.764080
4443.798866
4421.565535
4444.914256
4403.445153
4436.108559
4440.271855
4404.631057
4402.578995
4458.645890
4431.012946
4453.943253
4439.422790
4454.431374
4454.740276
4465.053890
4419.654002
4433.737791
4434.851853
4412.538040
4439.148378
4396.579950
4420.322137
4446.118297
4449.352539
4415.082516
4432.173983
4411.409699
4460.865321
4401.885253
4449.977153
4438.561613
4441.037691
4402.104465
4443.263840
4440.376201
4444.597745
4411.523995
4460.337523
4454.876543
4469.828458
4432.296454
4462.263438
4457.353725
4462.518446
4439.272524
4466.179664
4434.620518
4435.659758
4400.503525
4455.486563
4440.335916
4441.843843
4440.647699
4395.877440
4410.122981
4435.762562
4432.993647
4396.358883
4450.561146
4392.472267
4439.134667
4415.098780
4406.026494
4448.401990
4451.500442
4432.910192
4445.961907
4436.415414
4453.638757
4422.615327
4456.334421
4484.321537
4459.986881
4435.645557
4474.410535
4448.895081
4463.238653
4429.802437
4418.684865
4442.807437
4435.951778
4399.121430
4447.602076
4415.666056
4440.461720
4440.598772
4409.011564
4428.979353
4455.280835
4423.779456
4445.060589
4433.396728
4400.244439
4449.637151
4397.277828
4451.189440
4390.658572
4466.286013
4406.911715
4451.172114
4452.421057
4436.949670
4466.366316
4448.688748
4452.707982
4444.332281
4457.766635
4458.917479
4425.400180
4426.383193
4426.432949
4404.509353
4463.281072
4428.284287
4430.278877
4451.858449
4390.641354
4447.609331
4411.716749
4414.403495
4423.078885
4422.784385
4443.626431
4435.975905
4459.319617
4386.669904
4456.368645
4426.782213
4426.881731
4422.638955
4453.272243
4431.266317
4439.883433
4438.739014
4471.040803
4449.453845
4464.290823
4457.695148
4455.333770
4425.300056
4437.446615
4437.071117
4423.963808
4454.635497
4401.210609
4449.111463
4406.362846
4447.011074
4444.862289
4406.450466
4442.126239
4424.012462
4448.964010
4403.818426
4444.801518
4404.343032
4454.005635
4449.750553
4408.623462
4458.673133
4429.857029
4454.604161
4441.882089
4446.908901
4459.809087
4444.281938
4453.481274
4455.022449
4453.607425
4454.798262
4439.288835
4436.382378
4412.088835
4441.990841
4387.081982
4449.133755
4445.663935
4423.192283
4464.826071
4387.631196
4438.773181
4431.264323
4413.860537
4436.743800
4413.399858
4437.290405
4423.169183
4452.432843
4410.495410
4459.385131
4427.341502
4401.148932
4450.542954
4430.348433
4463.081102
4423.137853
4454.104439
4453.412303
4460.367237
4449.823263
4455.395602
4435.208330
4429.322668
4425.536944
4456.108838
4424.520532
4449.602672
4402.571565
4463.711586
4398.766651
4462.674336
4446.650860
4391.863181
4450.793066
4408.813485
4452.986881
4420.993990
4438.097452
4412.427522
4447.287361
4446.903378
4429.188583
4464.534314
4429.378352
4449.239448
4457.441935
4453.929312
4470.852345
4428.539972
4455.498172
4442.979162
4453.771802
4424.898512
4426.035144
4439.414886
4399.894681
4442.263331
4413.773558
4427.098278
4448.427552
4439.381168
4455.283504
4400.475497
4444.327183
4454.046473
4410.493584
4446.159182
4431.046363
4455.449577
4428.120318
4448.825987
4414.664325
4451.562351
4443.127588
4390.890225
4455.459829
4432.512586
4442.521327
4450.295112
4457.038166
4453.784356
4452.139305
4453.615482
4430.690241
4436.225599
4436.697257
4425.306785
4458.538329
4421.477810
4456.894757
4408.632764
4435.416224
4418.137448
4462.010669
4449.579691
4391.129933
4456.134793
4409.637073
4442.844787
4412.696384
4444.973142
4439.561592
4438.987123
4457.555786
4409.076789
4469.450293
4410.571983
4455.814980
4450.432796
4451.206531
4455.799507
4435.773627
4453.072920
4450.366047
4441.383033
4427.862845
4418.168303
4428.322217
4407.717466
4439.431813
4444.246178
4392.568657
4447.286632
4423.682516
4448.063742
4399.118071
4473.610400
4439.615186
4398.577577
4445.644967
4439.922676
4438.626463
4429.613595
4421.771939
4442.049531
4448.623269
4473.178254
4396.522697
4452.605194
4428.377795
4461.691515
4446.401310
4446.636975
4456.706657
4447.423337
4433.127377
4425.680361
4450.541559
4441.763690
4429.786594
4445.384713
4431.062800
4463.756170
4433.012730
4417.298757
4435.021821
4423.452704
4459.463371
4386.978893
4448.225460
4434.282439
4433.917340
4416.839922
4442.692051
4454.334742
4410.757097
4435.112662
4423.151963
4471.130971
4418.189998
4426.345810
4440.645378
4441.146900
4464.293339
4450.889374
4451.611924
4430.965974
4432.669169
4429.264974
4403.061859
4446.813498
4424.290297
4435.596715
4434.847044
4409.052593
4441.560485
4421.850632
4428.913137
4424.835409
4474.208040
4432.263845
4411.738724
4443.879240
4442.195860
4422.035185
4430.541151
4422.436528
4449.548474
4428.491355
4453.756232
4418.526067
4457.437138
4433.034563
4427.813253
4440.111034
4438.813213
4451.779171
4434.356613
4432.311246
4424.622348
4445.601628
4459.148433
4416.292037
4441.331410
4417.756347
4446.142057
4460.717893
4419.088770
4432.887879
4438.570148
4439.793805
4412.034320
4457.164077
4448.089256
4419.837166
4413.236062
4450.236079
4442.916581
4436.461038
4437.540541
4442.783293
4461.870000
4446.026702
4440.588457
4448.774333
4446.029307
4455.909519
4452.079321
4431.828900
4439.695219
4432.946485
4429.668343
4395.663101
4463.130726
4435.122157
4425.996072
4443.673207
4430.536058
4448.061919
4450.486586
4409.102091
4426.940538
4446.149105
4441.049606
4411.138137
4450.683250
4450.351807
4422.453230
4443.658767
4417.980009
4437.803936
4454.168094
4433.588686
4431.061130
4454.967751
4431.805625
4443.738080
4442.236083
4447.593942
4437.013763
4438.747017
4413.176721
4454.860230
4441.698829
4429.372305
4418.095683
4447.684186
4424.641088
4454.711604
4436.974154
4426.791365
4446.455000
4415.113627
4419.055257
4417.267079
4459.123583
4429.862371
4422.174849
4416.441983
4445.696128
4455.189598
4442.526669
4428.750214
4441.023513
4454.193555
4448.288724
4438.251048
4450.548703
4449.488661
4449.315025
4438.351753
4432.765397
4440.368068
4433.363930
4407.076570
4440.778612
4439.984899
4442.848046
4423.994338
4437.388413
4427.785178
4444.972474
4462.108661
4428.938703
4445.016765
4419.338941
4454.048111
4415.816087
4453.416783
4443.212071
4453.112449
4430.580962
4441.167950
4444.732128
4425.077788
4433.701143
4431.313945
4448.093548
4447.486412
4440.863850
4450.737225
4437.277799
4422.936610
4437.666913
4419.533216
4454.142817
4450.947799
4417.940538
4433.522008
4444.953441
4438.918754
4433.170273
4445.562053
4413.479185
4462.971634
4401.852051
4450.536902
4432.575995
4453.784891