# vtk DataFile Version 2.0
mfree iwf
ASCII

DATASET UNSTRUCTURED_GRID
POINTS 6231 float
0.000000 0.000300 0.000000
0.000000 0.000310 0.000000
0.000000 0.000320 0.000000
0.000000 0.000330 0.000000
0.000000 0.000340 0.000000
0.000001 0.000350 0.000000
0.000001 0.000360 0.000000
0.000001 0.000370 0.000000
0.000001 0.000380 0.000000
0.000001 0.000390 0.000000
0.000001 0.000400 0.000000
0.000001 0.000410 0.000000
0.000001 0.000421 0.000000
0.000001 0.000431 0.000000
0.000002 0.000441 0.000000
0.000002 0.000451 0.000000
0.000002 0.000461 0.000000
0.000002 0.000471 0.000000
0.000002 0.000480 0.000000
0.000002 0.000492 0.000000
0.000006 0.000501 0.000000
0.000266 0.000609 0.000000
0.000270 0.000688 0.000000
0.000266 0.000626 0.000000
0.000273 0.000703 0.000000
0.000280 0.000725 0.000000
0.000303 0.000768 0.000000
0.000307 0.000772 0.000000
0.000318 0.000780 0.000000
0.000328 0.000790 0.000000
0.000355 0.000818 0.000000
0.000010 0.000300 0.000000
0.000010 0.000310 0.000000
0.000010 0.000320 0.000000
0.000010 0.000330 0.000000
0.000010 0.000340 0.000000
0.000010 0.000350 0.000000
0.000011 0.000360 0.000000
0.000011 0.000370 0.000000
0.000011 0.000380 0.000000
0.000011 0.000390 0.000000
0.000011 0.000400 0.000000
0.000011 0.000411 0.000000
0.000011 0.000420 0.000000
0.000011 0.000430 0.000000
0.000012 0.000440 0.000000
0.000012 0.000451 0.000000
0.000012 0.000460 0.000000
0.000012 0.000472 0.000000
0.000013 0.000478 0.000000
0.000010 0.000492 0.000000
0.000013 0.000498 0.000000
0.000292 0.000738 0.000000
0.000298 0.000749 0.000000
0.000303 0.000757 0.000000
0.000309 0.000762 0.000000
0.000323 0.000774 0.000000
0.000330 0.000781 0.000000
0.000340 0.000791 0.000000
0.000346 0.000800 0.000000
0.000350 0.000806 0.000000
0.000351 0.000813 0.000000
0.000020 0.000300 0.000000
0.000020 0.000310 0.000000
0.000020 0.000320 0.000000
0.000020 0.000330 0.000000
0.000020 0.000340 0.000000
0.000021 0.000351 0.000000
0.000020 0.000360 0.000000
0.000021 0.000370 0.000000
0.000020 0.000380 0.000000
0.000021 0.000390 0.000000
0.000021 0.000400 0.000000
0.000022 0.000410 0.000000
0.000020 0.000420 0.000000
0.000023 0.000431 0.000000
0.000020 0.000440 0.000000
0.000024 0.000451 0.000000
0.000021 0.000460 0.000000
0.000022 0.000470 0.000000
0.000021 0.000481 0.000000
0.000024 0.000494 0.000000
0.000020 0.000497 0.000000
0.000284 0.000705 0.000000
0.000293 0.000729 0.000000
0.000297 0.000742 0.000000
0.000305 0.000747 0.000000
0.000318 0.000750 0.000000
0.000322 0.000766 0.000000
0.000339 0.000783 0.000000
0.000346 0.000794 0.000000
0.000359 0.000799 0.000000
0.000365 0.000804 0.000000
0.000030 0.000300 0.000000
0.000030 0.000310 0.000000
0.000030 0.000320 0.000000
0.000030 0.000330 0.000000
0.000030 0.000340 0.000000
0.000031 0.000350 0.000000
0.000030 0.000360 0.000000
0.000031 0.000370 0.000000
0.000031 0.000380 0.000000
0.000032 0.000390 0.000000
0.000030 0.000400 0.000000
0.000032 0.000411 0.000000
0.000031 0.000420 0.000000
0.000032 0.000430 0.000000
0.000032 0.000440 0.000000
0.000030 0.000450 0.000000
0.000032 0.000459 0.000000
0.000037 0.000473 0.000000
0.000030 0.000478 0.000000
0.000033 0.000488 0.000000
0.000032 0.000497 0.000000
0.000063 0.000500 0.000000
0.000299 0.000727 0.000000
0.000308 0.000736 0.000000
0.000321 0.000759 0.000000
0.000335 0.000761 0.000000
0.000332 0.000769 0.000000
0.000342 0.000773 0.000000
0.000348 0.000780 0.000000
0.000357 0.000788 0.000000
0.000371 0.000797 0.000000
0.000040 0.000300 0.000000
0.000040 0.000310 0.000000
0.000040 0.000320 0.000000
0.000040 0.000329 0.000000
0.000040 0.000340 0.000000
0.000040 0.000351 0.000000
0.000041 0.000360 0.000000
0.000041 0.000369 0.000000
0.000041 0.000380 0.000000
0.000040 0.000390 0.000000
0.000042 0.000399 0.000000
0.000041 0.000410 0.000000
0.000042 0.000420 0.000000
0.000040 0.000431 0.000000
0.000043 0.000439 0.000000
0.000043 0.000450 0.000000
0.000043 0.000460 0.000000
0.000037 0.000470 0.000000
0.000045 0.000478 0.000000
0.000043 0.000496 0.000000
0.000040 0.000498 0.000000
0.000266 0.000537 0.000000
0.000310 0.000725 0.000000
0.000317 0.000739 0.000000
0.000324 0.000743 0.000000
0.000328 0.000752 0.000000
0.000345 0.000760 0.000000
0.000357 0.000776 0.000000
0.000366 0.000779 0.000000
0.000367 0.000788 0.000000
0.000377 0.000791 0.000000
0.000050 0.000300 0.000000
0.000050 0.000310 0.000000
0.000050 0.000319 0.000000
0.000049 0.000331 0.000000
0.000052 0.000340 0.000000
0.000050 0.000349 0.000000
0.000052 0.000360 0.000000
0.000049 0.000371 0.000000
0.000053 0.000379 0.000000
0.000050 0.000390 0.000000
0.000053 0.000401 0.000000
0.000049 0.000410 0.000000
0.000054 0.000420 0.000000
0.000050 0.000430 0.000000
0.000054 0.000440 0.000000
0.000047 0.000451 0.000000
0.000055 0.000459 0.000000
0.000053 0.000470 0.000000
0.000056 0.000483 0.000000
0.000049 0.000488 0.000000
0.000050 0.000498 0.000000
0.000287 0.000722 0.000000
0.000273 0.000679 0.000000
0.000319 0.000730 0.000000
0.000334 0.000743 0.000000
0.000341 0.000752 0.000000
0.000350 0.000768 0.000000
0.000354 0.000758 0.000000
0.000360 0.000766 0.000000
0.000374 0.000778 0.000000
0.000384 0.000782 0.000000
0.000060 0.000300 0.000000
0.000060 0.000310 0.000000
0.000061 0.000321 0.000000
0.000060 0.000329 0.000000
0.000061 0.000339 0.000000
0.000059 0.000351 0.000000
0.000063 0.000360 0.000000
0.000060 0.000369 0.000000
0.000063 0.000381 0.000000
0.000058 0.000390 0.000000
0.000064 0.000399 0.000000
0.000059 0.000409 0.000000
0.000064 0.000419 0.000000
0.000058 0.000431 0.000000
0.000066 0.000441 0.000000
0.000060 0.000449 0.000000
0.000066 0.000460 0.000000
0.000055 0.000471 0.000000
0.000064 0.000475 0.000000
0.000068 0.000486 0.000000
0.000059 0.000496 0.000000
0.000283 0.000715 0.000000
0.000300 0.000718 0.000000
0.000325 0.000726 0.000000
0.000333 0.000733 0.000000
0.000343 0.000742 0.000000
0.000354 0.000749 0.000000
0.000370 0.000760 0.000000
0.000371 0.000766 0.000000
0.000380 0.000771 0.000000
0.000389 0.000775 0.000000
0.000070 0.000300 0.000000
0.000070 0.000310 0.000000
0.000070 0.000319 0.000000
0.000070 0.000330 0.000000
0.000071 0.000342 0.000000
0.000069 0.000349 0.000000
0.000072 0.000360 0.000000
0.000068 0.000371 0.000000
0.000073 0.000378 0.000000
0.000070 0.000390 0.000000
0.000074 0.000401 0.000000
0.000068 0.000411 0.000000
0.000075 0.000422 0.000000
0.000067 0.000429 0.000000
0.000075 0.000438 0.000000
0.000066 0.000452 0.000000
0.000077 0.000459 0.000000
0.000072 0.000470 0.000000
0.000076 0.000486 0.000000
0.000068 0.000496 0.000000
0.000076 0.000496 0.000000
0.000266 0.000524 0.000000
0.000296 0.000709 0.000000
0.000315 0.000718 0.000000
0.000341 0.000728 0.000000
0.000350 0.000739 0.000000
0.000361 0.000743 0.000000
0.000366 0.000751 0.000000
0.000377 0.000753 0.000000
0.000386 0.000763 0.000000
0.000395 0.000767 0.000000
0.000080 0.000300 0.000000
0.000080 0.000310 0.000000
0.000080 0.000320 0.000000
0.000081 0.000330 0.000000
0.000080 0.000339 0.000000
0.000081 0.000350 0.000000
0.000081 0.000361 0.000000
0.000080 0.000369 0.000000
0.000082 0.000382 0.000000
0.000078 0.000391 0.000000
0.000084 0.000397 0.000000
0.000078 0.000409 0.000000
0.000083 0.000417 0.000000
0.000079 0.000431 0.000000
0.000087 0.000446 0.000000
0.000077 0.000447 0.000000
0.000085 0.000464 0.000000
0.000075 0.000470 0.000000
0.000087 0.000473 0.000000
0.000086 0.000482 0.000000
0.000084 0.000495 0.000000
0.000279 0.000705 0.000000
0.000267 0.000678 0.000000
0.000327 0.000717 0.000000
0.000338 0.000721 0.000000
0.000351 0.000730 0.000000
0.000364 0.000735 0.000000
0.000372 0.000740 0.000000
0.000383 0.000751 0.000000
0.000391 0.000755 0.000000
0.000401 0.000759 0.000000
0.000090 0.000300 0.000000
0.000090 0.000310 0.000000
0.000090 0.000320 0.000000
0.000090 0.000329 0.000000
0.000090 0.000340 0.000000
0.000091 0.000351 0.000000
0.000090 0.000360 0.000000
0.000091 0.000370 0.000000
0.000089 0.000379 0.000000
0.000092 0.000389 0.000000
0.000091 0.000403 0.000000
0.000091 0.000411 0.000000
0.000089 0.000424 0.000000
0.000097 0.000426 0.000000
0.000088 0.000435 0.000000
0.000097 0.000456 0.000000
0.000087 0.000453 0.000000
0.000098 0.000471 0.000000
0.000106 0.000480 0.000000
0.000089 0.000495 0.000000
0.000095 0.000495 0.000000
0.000266 0.000550 0.000000
0.000295 0.000703 0.000000
0.000285 0.000695 0.000000
0.000309 0.000713 0.000000
0.000352 0.000721 0.000000
0.000365 0.000727 0.000000
0.000378 0.000739 0.000000
0.000387 0.000741 0.000000
0.000397 0.000747 0.000000
0.000407 0.000751 0.000000
0.000100 0.000300 0.000000
0.000100 0.000310 0.000000
0.000100 0.000320 0.000000
0.000100 0.000331 0.000000
0.000100 0.000340 0.000000
0.000100 0.000349 0.000000
0.000101 0.000359 0.000000
0.000101 0.000371 0.000000
0.000100 0.000380 0.000000
0.000102 0.000391 0.000000
0.000099 0.000399 0.000000
0.000103 0.000408 0.000000
0.000101 0.000417 0.000000
0.000099 0.000436 0.000000
0.000109 0.000443 0.000000
0.000097 0.000445 0.000000
0.000107 0.000460 0.000000
0.000098 0.000467 0.000000
0.000094 0.000481 0.000000
0.000107 0.000491 0.000000
0.000101 0.000494 0.000000
0.000266 0.000631 0.000000
0.000266 0.000637 0.000000
0.000268 0.000672 0.000000
0.000345 0.000714 0.000000
0.000358 0.000718 0.000000
0.000371 0.000723 0.000000
0.000382 0.000729 0.000000
0.000389 0.000730 0.000000
0.000400 0.000740 0.000000
0.000411 0.000742 0.000000
0.000110 0.000300 0.000000
0.000110 0.000310 0.000000
0.000110 0.000321 0.000000
0.000110 0.000330 0.000000
0.000110 0.000340 0.000000
0.000111 0.000351 0.000000
0.000111 0.000361 0.000000
0.000110 0.000368 0.000000
0.000111 0.000379 0.000000
0.000110 0.000390 0.000000
0.000112 0.000400 0.000000
0.000111 0.000414 0.000000
0.000116 0.000422 0.000000
0.000106 0.000427 0.000000
0.000113 0.000433 0.000000
0.000107 0.000450 0.000000
0.000116 0.000461 0.000000
0.000111 0.000471 0.000000
0.000116 0.000480 0.000000
0.000111 0.000493 0.000000
0.000119 0.000492 0.000000
0.000266 0.000585 0.000000
0.000266 0.000568 0.000000
0.000295 0.000694 0.000000
0.000318 0.000708 0.000000
0.000317 0.000699 0.000000
[...]
POINT_DATA 6231
SCALARS density float 1
LOOKUP_TABLE default
4400.231238
4424.157363
4419.352870
4422.140273
4426.188113
4425.083540
4425.278186
4425.718550
4427.341670
4428.217036
4424.329001
4427.977591
4429.371379
4429.986972
4430.427240
4440.688998
4422.556434
4431.936581
4412.808337
4423.394536
4411.418199
4615.728460
4424.027690
4454.084265
4440.456936
4440.572702
4404.795517
4438.199484
4434.620272
4450.366267
4417.254164
4405.786585
4421.624477
4422.353511
4426.548913
4421.476764
4425.055119
4425.124347
4420.309456
4428.117772
4432.307535
4428.334117
4434.465420
4425.698838
4436.223530
4415.253093
4427.903547
4409.940007
4443.904867
4460.870328
4460.245242
4415.556224
4393.622935
4389.786618
4402.298726
4454.262005
4390.492298
4405.796755
4416.872586
4414.574938
4433.077037
4462.487940
4415.365973
4427.490720
4421.503901
4423.991668
4421.020858
4426.714453
4427.537916
4439.023026
4423.390526
4419.658314
4427.421767
4429.979892
4412.927481
4442.549142
4415.304807
4475.837306
4398.913859
4453.230484
4352.667823
4450.012778
4420.034434
4417.387035
4396.681238
4394.315218
4513.952796
4341.911827
4427.819834
4465.679649
4411.521650
4433.321833
4397.471561
4418.689330
4419.882876
4422.744633
4423.706367
4434.516856
4433.556360
4415.230344
4424.256626
4416.949326
4449.285079
4411.839800
4439.853827
4424.889813
4443.473647
4400.981310
4433.259703
4389.245077
4457.554241
4369.730848
4555.774123
4369.947310
4431.216177
4521.378064
4469.831092
4449.902615
4379.811231
4482.716367
4413.764218
4416.393378
4502.481359
4448.182737
4425.275461
4427.354506
4438.402019
4431.076643
4418.192584
4422.700837
4432.964452
4442.480142
4414.125392
4440.117563
4398.210794
4450.805829
4394.979546
4443.528860
4415.858390
4448.539216
4386.535819
4508.221163
4310.270550
4420.069228
4384.027215
4545.544607
4365.022865
4381.291785
4474.927751
4465.616594
4434.059535
4387.699002
4436.147540
4369.774937
4423.355355
4435.351712
4422.325020
4415.858496
4422.222556
4437.192095
4439.883167
4407.654231
4431.944946
4419.354630
4438.692817
4429.251109
4445.560129
4399.271518
4465.814665
4358.142688
4478.306440
4357.680645
4480.770926
4362.252471
4535.861192
4383.355715
4435.828466
4416.910212
4484.872578
4431.587209
4412.093659
4462.326355
4416.218639
4402.288115
4446.681344
4416.891253
4422.614935
4427.224309
4440.362920
4439.506804
4414.321058
4427.882811
4434.706251
4437.230370
4416.300248
4438.664110
4407.386767
4436.146274
4429.681614
4445.678836
4421.567924
4476.479673
4401.959542
4516.150671
4369.701742
4483.659572
4431.404216
4418.750403
4363.427279
4431.504375
4409.563146
4432.451069
4442.586894
4453.169102
4442.895327
4400.386974
4448.981539
4422.085980
4430.921963
4422.985574
4411.279775
4446.311347
4429.200516
4421.929942
4435.445923
4415.672026
4434.403759
4428.974819
4425.010169
4421.435384
4421.659908
4449.226725
4458.038347
4442.694574
4463.355354
4445.855529
4411.946965
4385.894081
4551.675429
4462.869449
4458.461780
4458.218253
4434.944156
4453.749336
4399.716589
4445.749962
4401.106595
4421.868204
4426.781110
4429.890907
4414.626787
4440.925967
4435.810314
4409.469289
4448.523003
4419.377751
4442.174759
4437.543002
4394.654537
4424.517184
4421.098494
4440.265692
4465.194980
4389.471804
4455.028146
4450.581169
4352.068633
4472.037499
4412.328389
4423.048093
4418.632158
4400.817607
4447.834148
4407.730893
4421.961107
4438.038452
4444.295835
4438.693778
4425.809168
4425.375512
4434.291349
4435.471490
4425.557950
4405.039182
4443.372991
4431.941220
4416.133860
4443.953257
4411.628929
4447.717389
4416.279193
4416.446403
4464.713889
4411.970251
4381.972318
4439.912465
4437.893553
4427.901817
4426.310919
4411.820856
4517.588468
4448.060821
4428.018717
4464.861402
4445.812538
4434.219858
4457.666118
4393.432604
4429.090695
4426.933809
4432.426417
4427.532497
4419.073045
4428.285579
4444.853645
4437.365440
4409.689698
4433.456608
4424.375854
4418.292481
4447.164163
4418.383469
4414.210092
4391.717464
4436.399363
4448.096754
4410.638850
4471.136287
4422.461022
4436.057221
4416.151223
4457.460134
4463.529527
4418.309418
4386.214361
4447.143895
4446.463781
4434.124587
4456.224256
4433.641416
4410.198973
4431.940112
4424.097613
4440.379581
4433.607227
4412.268128
4411.068263
4449.738576
4443.046225
4411.854912
4441.762977
4406.769731
4451.121460
4403.463646
4446.073255
4413.198315
4449.690399
4473.468433
4386.361253
4461.542978
4404.698195
4415.321577
4597.217839
4570.357983
4421.905243
4404.089686
4450.548366
4428.800035
4449.688169
4459.235489
4411.062658
4430.486231
4433.072250
4421.574423
4430.918724
4413.648054
4438.027210
4449.638026
4404.304724
4409.675779
4439.999586
4435.403796
4408.560404
4443.612115
4424.585061
4451.572853
4426.232415
4369.544304
4429.882398
4391.382277
4421.093500
4438.435175
4396.101142
4468.986875
4423.371393
4431.646061
4452.702119
4445.144848
4386.480573
4416.669211
4392.545293
4429.228627
4407.856376
4427.460050
4435.681710
4425.630596
4433.196394
4425.201739
4409.533805
4438.101417
4443.094902
4426.375625
4398.158093
4442.717982
4408.110858
4446.607193
4411.179462
4404.249560
4436.379135
4418.765876
4446.188095
4490.165127
4421.465066
4446.613448
4381.060453
4402.958462
4410.337296
4434.558843
4410.777418
4431.535623
4443.034668
4454.217929
4460.395539
4411.066495
4427.764745
4439.758277
4428.483131
4416.937685
4421.865483
4432.310292
4436.562055
4403.153671
4430.819954
4429.709167
4442.689487
4403.517546
4429.737726
4404.544333
4444.970111
4382.243387
4412.665938
4498.569079
4576.123611
4389.582683
4371.950622
4409.537869
4399.991665
4496.497935
4473.950041
4384.372675
4474.645784
4447.182032
4428.279971
4429.952418
4440.633818
4427.621594
4425.222975
4425.704908
4441.711636
4430.094616
4409.565967
4416.557351
4445.258603
4435.743124
4394.997273
4427.660826
4428.396585
4432.152573
4389.852965
4452.877679
4413.697259
4484.730410
4354.279562
4329.933358
4506.142324
4397.706226
4457.443755
4407.356084
4415.406591
4476.950469
4382.778582
4450.789532
4399.949296
4409.736643
4419.473276
4411.926330
4426.044464
4439.535165
4430.861413
4419.199423
4421.454268
4440.752734
4435.446092
4404.601260
4416.087137
4443.274243
4437.917271
4393.764225
4444.521463
4416.744235
4432.863645
4417.680099
4414.412858
4493.224095
4482.944780
4425.535562
4407.935285
4403.711751
4463.930456
4430.118100
4435.822857
4391.395050
4419.019767
4442.202015
4419.102467
4439.618170
4417.799468
4436.333458
4431.190469
4414.550039
4435.748357
4434.854019
4419.414057
4417.679988
4436.139720
4437.787448
4405.566618
4417.139930
4450.283750
4410.466077
4440.992348
4387.558753
4452.314239
4402.536095
4469.073977
4331.842772
4359.680301
4433.418008
4420.698956
4441.308456
4456.723779
4396.462922
4455.703449
4451.083465
4440.879774
4447.410588
4426.205254
4421.014374
4427.419778
4419.978739
4436.134019
4450.601674
4407.386270
4431.555322
4437.760376
4422.574616
4411.400424
4443.802311
4426.233897
4417.585147
4406.488410
4443.495128
4401.538101
4443.336704
4331.193436
4478.356750
4391.020170
4453.509387
4400.849412
4424.586476
4399.041223
4475.644017
4478.175252
4396.756482
4437.288236
4452.111248
4423.349485
4425.168874
4425.547611
4423.058161
4434.652322
4432.150065
4404.830868
4432.692646
4450.952270
4393.759344
4437.285850
4425.612860
4434.462604
4397.778854
4452.349661
4402.375244
4435.609277
4397.847893
4446.691670
4465.190148
4481.114238
4428.703571
4559.966063
4385.284303
4458.928031
4463.486202
4435.003649
4438.418927
4373.892804
4430.371926
4425.749822
4447.084234
4430.216849
4399.082772
4426.887452
4427.485769
4414.971566
4440.592550
4442.471766
4408.735166
4429.867905
4451.331110
4385.336838
4437.766449
4426.744695
4443.331668
4389.618315
4435.517252
4439.199025
4398.051379
4401.812229
4465.328447
4370.191286
4402.058156
4624.898899
4415.325081
4494.688707
4487.106169
4433.422859
4420.938913
4434.914693
4431.941782
4457.128708
4396.961046
4393.416395
4424.109965
4435.152266
4431.627359
4434.973863
4395.797081
4437.881487
4445.356409
4400.154265
4432.297436
4445.073000
4406.051737
4413.319440
4447.839370
4411.203781
4410.093467
4477.366543
4397.449779
4474.369293
4393.521205
4475.627669
4409.386687
4447.954915
4495.615127
4419.368405
4435.362874
4431.075088
4458.881839
4452.943536
4386.503405
4419.701219
4446.610040
4432.379298
4422.449843
4417.993167
4418.728449
4445.670364
4434.863738
4392.189094
4432.451230
4447.097595
4381.983428
4440.274203
4443.073448
4415.905060
4439.868313
4405.934430
4419.591794
4392.810707
4446.659614
4404.955730
4466.528473
4418.335586
4442.345084
4445.964224
4469.568828
4413.781384
4444.482996
4451.228588
4401.752045
4489.570350
4397.982033
4426.029278
4424.510538
4419.060775
4442.364284
4434.039447
4411.365430
4411.251090
4445.900035
4436.593121
4399.206045
4432.795226
4432.084031
4397.797158
4406.665865
4446.765035
4414.595827
4419.075831
4432.738661
4416.707528
4424.438091
4387.213244
4406.511536
4431.365302
4423.474484
4466.680639
4460.091509
4462.365766
4436.047459
4449.045366
4442.661634
4440.713117
4425.403760
4421.085550
4434.632949
4432.034801
4408.124929
4436.173177
4438.643552
4412.176044
4406.269715
4426.050679
4451.882864
4387.842714
4437.359490
4448.247515
4403.704570
4422.445957
4440.417272
4409.647789
4424.607252
4448.974276
4549.332936
4412.133360
4486.556120
4468.580627
4439.773755
4452.885358
4424.879897
4449.865659
4434.455275
4393.189534
4429.117266
4451.919622
4427.839914
4429.423037
4410.332444
4441.102027
4444.395235
4405.747808
4415.421060
4448.422482
4423.412951
4402.526870
4418.730725
4425.558413
4386.538234
4441.576340
4421.658154
4422.865000
4397.312548
4455.293543
4395.285811
4365.134808
4457.645142
4528.533600
4465.201018
4434.766614
4441.606521
4434.886704
4473.595011
4438.619093
4452.856224
4418.602906
4411.549150
4426.210397
4436.393361
4434.524158
4436.825353
4393.703123
4448.272796
4448.145268
4397.570539
4412.595380
4438.325807
4432.390380
4412.927485
4418.236482
4419.022805
4400.578325
4408.951893
4444.797906
4436.055973
4431.257597
4395.899016
4461.638818
4388.807622
4483.331268
4473.941811
4447.199407
4460.544539
4429.634493
4423.276561
4441.564195
4400.027475
4435.237077
4432.683466
4425.017742
4417.454330
4422.960471
4442.366222
4437.671283
4395.964712
4442.908917
4439.598930
4415.783854
4394.991296
4429.148496
4435.506566
4412.879568
4417.784458
4452.548393
4414.992700
4421.227922
4463.916007
4434.280838
4479.328947
4496.064085
4455.122138
4451.728909
4456.799977
4430.660693
4452.376795
4407.392626
4472.746848
4419.641973
4429.078548
4428.703673
4423.063307
4442.015852
4434.219684
4419.946541
4407.192975
4435.038354
4449.042204
4389.991764
4434.445603
4439.635298
4413.482528
4394.511683
4429.168595
4429.887172
4410.941795
4423.711798
4401.507301
4435.045453
4421.703651
4437.090637
4431.821369
4456.703437
4449.076776
4460.099630
4431.499700
4464.510443
4390.447894
4420.421740
4469.974713
4425.223679
4422.460598
4431.268760
4432.813452
4414.188222
4431.487389
4441.593443
4423.908299
4398.693480
4440.283330
4445.843832
4396.549306
4421.679496
4434.374019
4423.601511
4417.451716
4398.774725
4449.415736
4427.363673
4400.846855
4435.310291
4462.191967
4445.377051
4428.754103
4425.819516
4463.037975
4424.248042
4447.964134
4438.045674
4426.041162
4394.704857
4399.883466
4428.914894
4433.604488
4418.286347
4443.594429
4445.394230
4403.178497
4425.518918
4431.503385
4422.575391
4403.672403
4443.731356
4435.989416
4408.290302
4390.353994
4433.594542
4440.376102
4405.598177
4440.981900
4438.308495
4417.524804
4429.072916
4431.075566
4453.318815
4438.945871
4444.753732
4455.801372
4465.365463
4470.520926
4463.369825
4413.240616
4438.729470
4429.502999
4432.328975
4435.816988
4429.873007
4409.227979
4446.838237
4438.981659
4413.574114
4426.299558
4419.444262
4440.621955
4394.028864
4439.564199
4448.065512
4413.673061
4404.937164
4428.150512
4424.513626
4436.477652
4434.595310
4466.931918
4442.847022
4460.496893
4436.527700
4416.148382
4448.609210
4455.842418
4452.677628
4453.945041
4431.264840
4428.744382
4437.029615
4428.887378
4427.066832
4429.820955
4439.429797
4439.626470
4402.500913
4427.986929
4429.297458
4426.505166
4417.469730
4431.881062
4436.336279
4393.635654
4398.172997
4431.388607
4439.291587
4416.452810
4436.737129
4435.292902
4431.888152
4422.299413
4431.021097
4456.032065
4442.596549
4443.900507
4438.577925
4416.849394
4513.619332
4407.459261
4426.363792
4440.068505
4421.551045
4445.153725
4429.422273
4425.511536
4405.247377
4442.057896
4453.122570
4411.185042
4423.628388
4427.292431
4428.827046
4412.043144
4441.461103
4438.882431
4418.865883
4395.913198
4419.513334
4414.665547
4422.859066
4410.472051
4447.045752
4456.601766
4419.845344
4428.706312
4443.393090
4433.534556
4435.668277
4417.295716
4362.816229
4408.662718
4432.120448
4431.925138
4442.911618
4407.946354
4441.276826
4447.845496
4412.432459
4395.458032
4434.539798
4440.545609
4412.480221
4430.961249
4410.416883
4432.898022
4393.560673
4404.841457
4449.201099
4437.454118
4407.348451
4448.852703
4438.969158
4448.487647
4408.735049
4448.135586
4436.084242
4442.076381
4462.214077
4469.032276
4436.355240
4492.458862
4433.650723
4441.841286
4436.657885
4419.608514
4449.945252
4427.485337
4412.477242
4448.589406
4444.571192
4421.056903
4432.098995
4417.674525
4443.430739
4430.474515
4422.553332
4442.304718
4436.508508
4400.011449
4416.492713
4432.746368
4403.887837
4426.263817
4442.073209
4449.562499
4451.829535
4413.198238
4427.158985
4447.184249
4419.198781
4480.633700
4440.302078
4518.751896
4426.165492
4426.565517
4439.428278
4439.464869
4409.228633
4463.974432
4425.971138
4406.576522
4432.433432
4406.117847
4445.766468
4421.534299
4424.110060
4432.996746
4404.416229
4412.744080
4431.053594
4446.897199
4425.224040
4420.794132
4437.766486
4428.045385
4411.598046
4416.745948
4462.763194
4461.749079
4406.870068
4415.427564
4492.658232
4448.304023
4468.543595
4423.386555
4426.998181
4442.644102
4417.323391
4427.041121
4424.765868
4399.611004
4444.693608
4439.389451
4428.515618
4437.722085
4429.526172
4420.370506
4426.633936
4442.314627
4424.593572
4426.121195
4405.216529
4448.919856
4431.106922
4432.525268
4425.388240
4447.297439
4430.899904
4448.234242
4454.114315
4449.959674
4425.136486
4463.847356
4420.613253
4461.319403
4434.082598
4429.527275
4407.676228
4433.978858
4446.917264
4419.621548
4441.653108
4440.573154
4395.709893
4441.584276
4394.276046
4428.367499
4432.017437
4419.826073
4421.104025
4428.279847
4426.931565
4423.653983
4447.383801
4411.954590
4442.449134
4434.263196
4440.615489
4436.589926
4425.181616
4432.746584
4446.156499
4461.620201
4468.930499
4487.620858
4466.846175
4427.880944
4422.664170
4439.483288
4441.064911
4407.459047
4437.433347
4427.744634
4402.991221
4452.982720
4441.431142
4429.821366
4451.516316
4418.979237
4446.679833
4403.338557
4427.754673
4426.779569
4420.251303
4435.996259
4417.482450
4424.147521
4410.863707
4444.962040
4431.581543
4449.030501
4456.623553
4445.429637
4447.507835
4442.951529
4397.632905
4471.370451
4426.310078
4431.649867
4415.744922
4416.948325
4447.579741
4432.517767
4409.202752
4439.030830
4431.409787
4409.251559
4419.081938
4404.492321
4407.576044
4423.708480
4441.330882
4424.644623
4435.202392
4408.115665
4436.032697
4428.028721
4415.557579
4447.566633
4436.354022
4442.931999
4439.072840
4437.083264
4463.942743
4449.239135
4474.882581
4472.518466
4463.809609
4424.911817
4441.413604
4430.054335
4438.797671
4444.963691
4427.492055
4446.533851
4426.439037
4410.883333
4453.914926
4464.933412
4413.587251
4468.774434
4456.805029
4404.862986
4435.861374
4420.476208
4435.043207
4423.857532
4444.006842
4436.902322
4431.876443
4418.244244
4460.185408
4431.860491
4464.211287
4454.102222
4453.365481
4453.626796
4447.575520
4458.496158
4432.496826
4432.960354
4411.776222
4427.291688
4384.655912
4450.153524
4434.211528
4416.078275
4444.165437
4417.532957
4392.787897
4416.402415
4442.126759
4399.494006
4438.318394
4389.742432
4442.028381
4440.200634
4435.100469
4428.686810
4420.806862
4426.596723
4450.003745
4438.875242
4437.180916
4437.868792
4435.906779
4469.287189
4458.788116
4458.313686
4458.052407
4431.370347
4427.394544
4431.889788
4450.240715
4423.293198
4437.620445
4415.493991
4456.731680
4411.825488
4451.959572
4448.175170
4445.656717
4409.737485
4437.487480
4426.531376
4447.626731
4422.202459
4410.043595
4448.326952
4417.185240
4436.340929
4451.215612
4422.522538
4454.966274
4446.541292
4453.788767
4465.873359
4448.558370
4459.380264
4453.958690
4455.675947
4424.951226
4424.453189
4430.809224
4404.782592
4428.911104
4418.216945
4422.932565
4434.683890
4449.992099
4408.816952
4420.324972
4393.595880
4416.974734
4443.092398
4421.798281
4452.695651
4422.518736
4448.355382
4447.586734
4403.369211
4447.588088
4399.458097
4436.756901
4448.649553
4432.244701
4445.835401
4458.891543
4455.784931
4454.871687
4451.688531
4454.074622
4428.269885
4436.679465
4429.891674
4431.739462
4451.800459
4442.870722
4448.755069
4415.501426
4427.295759
4439.754266
4459.735474
4453.616451
4430.153425
4438.081778
4415.061390
4467.924846
4418.401251
4448.406499
4412.864415
4451.680968
4460.880910
4418.669052
4459.525018
4406.638374
4465.890294
4453.738447
4436.470639
4467.224227
4455.918158
4453.120114
4452.759958
4434.191595
4429.823964
4415.620188
4426.123225
4399.356779
4449.058125
4434.575569
4407.992847
4423.815759
4417.443706
4416.433862
4403.403908
4459.189899
4417.740128
4404.175886
4405.944685
4455.758076
4428.935772
4443.473333
4426.388697
4403.719625
4438.231684
4464.888464
4399.799273
4465.490995
4414.215578
4466.185765
4448.513939
4443.333847
4455.144889
4450.565810
4434.829985
4426.444038
4444.560640
4443.742451
4432.145851
4434.789008
4428.350724
4432.920044
4448.085426
4422.301564
4455.810036
4426.050942
4439.246331
4412.274518
4449.636513
4440.770677
4434.556063
4417.786949
4436.277374
4456.443000
4447.489656
4419.196768
4422.851710
4465.923096
4424.846224
4428.951688
4432.623145
4444.592131
4469.937619
4456.524908
4452.516557
4425.628247
4425.613088
4436.268433
4402.365686
4444.432796
4427.097093
4430.327405
4446.377465
4411.660946
4436.800973
4413.177581
4420.420786
4427.263801
4448.065213
4415.035180
4420.887535
4452.909505
4439.037708
4426.330445
4424.421307
4425.963467
4442.195067
4436.214557
4455.921940
4411.112682
4474.641371
4417.811868
4447.479371
4437.637333
4438.988788
4452.202354
4434.954461
4439.868045
4430.510773
4442.096913
4457.642687
4417.200781
4429.270023
4407.308117
4442.151167
4453.471439
4424.280696
4446.414738
4439.759472
4422.244090
4442.442121
4440.713151
4433.617976
4429.885862
4426.830397
4443.396440
4448.033182
4452.612067
4437.860011
4441.919322
4455.045483
4444.354981
4443.987231
4448.826391
4445.525906
4464.372399
4451.431979
4432.852203
4433.013896
4413.807705
4440.010871
4395.315742
4453.723836
4438.638123
4442.044924
4441.933982
4416.016333
4419.658625
4453.386553
4403.069057
4439.590224
4436.554630
4418.553770
4432.697061
4441.258668
4440.855889
4416.255827
4443.997872
4411.916069
4428.834819
4459.772080
4431.548802
4433.415437
4455.314504
4428.386733
4445.915284
4430.886613
4450.937237
4429.907579
4432.780349
4439.021292
4431.901084
4444.198854
4424.086243
4415.351954
4416.040475
4429.710706
4454.803592
4449.692162
4444.421406
4444.580601
4407.621544
4412.390837
4439.971154
4442.699091
4429.715864
4431.564448
4424.187867
4455.054797
4459.999584
4445.760003
4441.074492
4452.027947
4451.598230
4445.541590
4448.778269
4462.507738
4446.308413
4453.396907
4445.279790
4428.954670
4438.378277
4418.602800
4425.982066
4438.248381
4426.930756
4449.314012
4419.567987
4422.911058
4412.174802
4436.914805
4457.973106
4442.587487
4446.660834
4424.538042
4432.366709
4435.612240
4447.737207
4430.538352
4439.821970
4429.012209
4419.192515
4434.722712
4423.157122
4446.251056
4434.754343
4435.130873
4440.245766
4448.330860
4446.419812
4435.308752
4428.095706
4434.847244
4441.730375
4437.118336
4424.244418
4433.754122
4441.882390
4419.322789
4454.923285
4435.181525
4439.477061
4403.981262
4454.291076
4413.145612
4451.616767
4443.482539
4436.793597