# vtk DataFile Version 2.0
mfree iwf
ASCII

DATASET UNSTRUCTURED_GRID
POINTS 6231 float
0.000000 0.000300 0.000000
0.000000 0.000310 0.000000
0.000000 0.000320 0.000000
0.000000 0.000330 0.000000
0.000000 0.000340 0.000000
0.000001 0.000350 0.000000
0.000001 0.000360 0.000000
0.000001 0.000370 0.000000
0.000001 0.000380 0.000000
0.000001 0.000390 0.000000
0.000001 0.000400 0.000000
0.000001 0.000410 0.000000
0.000001 0.000420 0.000000
0.000001 0.000431 0.000000
0.000002 0.000441 0.000000
0.000002 0.000451 0.000000
0.000002 0.000461 0.000000
0.000002 0.000471 0.000000
0.000002 0.000480 0.000000
0.000002 0.000492 0.000000
0.000006 0.000501 0.000000
0.000253 0.000598 0.000000
0.000255 0.000675 0.000000
0.000253 0.000613 0.000000
0.000257 0.000690 0.000000
0.000263 0.000712 0.000000
0.000284 0.000756 0.000000
0.000288 0.000760 0.000000
0.000298 0.000769 0.000000
0.000307 0.000779 0.000000
0.000333 0.000808 0.000000
0.000010 0.000300 0.000000
0.000010 0.000310 0.000000
0.000010 0.000320 0.000000
0.000010 0.000330 0.000000
0.000010 0.000340 0.000000
0.000010 0.000350 0.000000
0.000011 0.000360 0.000000
0.000011 0.000370 0.000000
0.000011 0.000380 0.000000
0.000011 0.000390 0.000000
0.000011 0.000400 0.000000
0.000011 0.000411 0.000000
0.000011 0.000420 0.000000
0.000011 0.000430 0.000000
0.000012 0.000440 0.000000
0.000012 0.000451 0.000000
0.000012 0.000460 0.000000
0.000012 0.000472 0.000000
0.000013 0.000478 0.000000
0.000010 0.000492 0.000000
0.000013 0.000498 0.000000
0.000274 0.000726 0.000000
0.000280 0.000737 0.000000
0.000285 0.000745 0.000000
0.000290 0.000750 0.000000
0.000304 0.000763 0.000000
0.000310 0.000771 0.000000
0.000320 0.000781 0.000000
0.000325 0.000790 0.000000
0.000329 0.000796 0.000000
0.000330 0.000803 0.000000
0.000020 0.000300 0.000000
0.000020 0.000310 0.000000
0.000020 0.000320 0.000000
0.000020 0.000330 0.000000
0.000020 0.000340 0.000000
0.000021 0.000351 0.000000
0.000020 0.000360 0.000000
0.000021 0.000370 0.000000
0.000020 0.000380 0.000000
0.000021 0.000390 0.000000
0.000021 0.000400 0.000000
0.000022 0.000410 0.000000
0.000020 0.000420 0.000000
0.000022 0.000431 0.000000
0.000020 0.000440 0.000000
0.000024 0.000451 0.000000
0.000021 0.000460 0.000000
0.000022 0.000470 0.000000
0.000021 0.000481 0.000000
0.000024 0.000494 0.000000
0.000020 0.000497 0.000000
0.000268 0.000693 0.000000
0.000275 0.000717 0.000000
0.000279 0.000729 0.000000
0.000287 0.000736 0.000000
0.000299 0.000739 0.000000
0.000303 0.000755 0.000000
0.000319 0.000772 0.000000
0.000326 0.000784 0.000000
0.000338 0.000790 0.000000
0.000343 0.000795 0.000000
0.000030 0.000300 0.000000
0.000030 0.000310 0.000000
0.000030 0.000320 0.000000
0.000030 0.000330 0.000000
0.000030 0.000340 0.000000
0.000031 0.000350 0.000000
0.000030 0.000360 0.000000
0.000031 0.000371 0.000000
0.000031 0.000380 0.000000
0.000031 0.000390 0.000000
0.000031 0.000400 0.000000
0.000032 0.000411 0.000000
0.000031 0.000420 0.000000
0.000032 0.000430 0.000000
0.000031 0.000440 0.000000
0.000030 0.000450 0.000000
0.000032 0.000459 0.000000
0.000037 0.000473 0.000000
0.000030 0.000478 0.000000
0.000033 0.000488 0.000000
0.000032 0.000497 0.000000
0.000063 0.000500 0.000000
0.000282 0.000715 0.000000
0.000290 0.000725 0.000000
0.000301 0.000748 0.000000
0.000316 0.000750 0.000000
0.000312 0.000758 0.000000
0.000322 0.000763 0.000000
0.000329 0.000771 0.000000
0.000336 0.000779 0.000000
0.000350 0.000789 0.000000
0.000040 0.000300 0.000000
0.000040 0.000310 0.000000
0.000040 0.000320 0.000000
0.000040 0.000330 0.000000
0.000040 0.000340 0.000000
0.000040 0.000351 0.000000
0.000041 0.000360 0.000000
0.000041 0.000369 0.000000
0.000041 0.000380 0.000000
0.000040 0.000390 0.000000
0.000042 0.000399 0.000000
0.000041 0.000410 0.000000
0.000042 0.000420 0.000000
0.000040 0.000431 0.000000
0.000043 0.000439 0.000000
0.000043 0.000450 0.000000
0.000043 0.000460 0.000000
0.000037 0.000470 0.000000
0.000045 0.000478 0.000000
0.000043 0.000496 0.000000
0.000040 0.000498 0.000000
0.000253 0.000535 0.000000
0.000293 0.000714 0.000000
0.000299 0.000728 0.000000
0.000307 0.000732 0.000000
0.000310 0.000742 0.000000
0.000326 0.000750 0.000000
0.000337 0.000767 0.000000
0.000346 0.000770 0.000000
0.000346 0.000779 0.000000
0.000356 0.000783 0.000000
0.000050 0.000300 0.000000
0.000050 0.000310 0.000000
0.000050 0.000319 0.000000
0.000050 0.000331 0.000000
0.000051 0.000340 0.000000
0.000050 0.000349 0.000000
0.000051 0.000360 0.000000
0.000049 0.000371 0.000000
0.000052 0.000380 0.000000
0.000050 0.000390 0.000000
0.000053 0.000401 0.000000
0.000049 0.000411 0.000000
0.000054 0.000420 0.000000
0.000050 0.000430 0.000000
0.000054 0.000440 0.000000
0.000048 0.000451 0.000000
0.000055 0.000459 0.000000
0.000053 0.000470 0.000000
0.000056 0.000483 0.000000
0.000049 0.000488 0.000000
0.000050 0.000498 0.000000
0.000269 0.000709 0.000000
0.000258 0.000666 0.000000
0.000302 0.000719 0.000000
0.000316 0.000732 0.000000
0.000323 0.000742 0.000000
0.000330 0.000757 0.000000
0.000336 0.000749 0.000000
0.000342 0.000758 0.000000
0.000354 0.000770 0.000000
0.000363 0.000774 0.000000
0.000060 0.000300 0.000000
0.000060 0.000310 0.000000
0.000061 0.000321 0.000000
0.000060 0.000330 0.000000
0.000061 0.000339 0.000000
0.000059 0.000351 0.000000
0.000062 0.000360 0.000000
0.000060 0.000369 0.000000
0.000063 0.000381 0.000000
0.000058 0.000390 0.000000
0.000064 0.000399 0.000000
0.000059 0.000409 0.000000
0.000064 0.000419 0.000000
0.000058 0.000431 0.000000
0.000067 0.000441 0.000000
0.000060 0.000449 0.000000
0.000066 0.000460 0.000000
0.000055 0.000471 0.000000
0.000064 0.000475 0.000000
0.000068 0.000486 0.000000
0.000059 0.000496 0.000000
0.000266 0.000702 0.000000
0.000283 0.000707 0.000000
0.000307 0.000716 0.000000
0.000316 0.000722 0.000000
0.000324 0.000732 0.000000
0.000335 0.000740 0.000000
0.000349 0.000751 0.000000
0.000352 0.000757 0.000000
0.000361 0.000762 0.000000
0.000370 0.000767 0.000000
0.000070 0.000300 0.000000
0.000070 0.000310 0.000000
0.000070 0.000319 0.000000
0.000070 0.000330 0.000000
0.000071 0.000341 0.000000
0.000069 0.000349 0.000000
0.000072 0.000360 0.000000
0.000068 0.000371 0.000000
0.000073 0.000378 0.000000
0.000070 0.000390 0.000000
0.000074 0.000401 0.000000
0.000068 0.000411 0.000000
0.000075 0.000421 0.000000
0.000067 0.000429 0.000000
0.000075 0.000437 0.000000
0.000066 0.000452 0.000000
0.000078 0.000459 0.000000
0.000072 0.000470 0.000000
0.000076 0.000486 0.000000
0.000068 0.000496 0.000000
0.000076 0.000496 0.000000
0.000253 0.000521 0.000000
0.000280 0.000697 0.000000
0.000299 0.000706 0.000000
0.000324 0.000719 0.000000
0.000333 0.000729 0.000000
0.000342 0.000735 0.000000
0.000348 0.000742 0.000000
0.000358 0.000746 0.000000
0.000367 0.000755 0.000000
0.000376 0.000760 0.000000
0.000080 0.000300 0.000000
0.000080 0.000310 0.000000
0.000080 0.000320 0.000000
0.000081 0.000330 0.000000
0.000080 0.000339 0.000000
0.000081 0.000350 0.000000
0.000080 0.000360 0.000000
0.000080 0.000369 0.000000
0.000082 0.000382 0.000000
0.000078 0.000391 0.000000
0.000084 0.000397 0.000000
0.000079 0.000409 0.000000
0.000083 0.000417 0.000000
0.000079 0.000431 0.000000
0.000087 0.000446 0.000000
0.000077 0.000447 0.000000
0.000085 0.000464 0.000000
0.000075 0.000470 0.000000
0.000087 0.000473 0.000000
0.000086 0.000482 0.000000
0.000084 0.000495 0.000000
0.000263 0.000692 0.000000
0.000253 0.000665 0.000000
0.000310 0.000707 0.000000
0.000320 0.000710 0.000000
0.000333 0.000721 0.000000
0.000346 0.000726 0.000000
0.000354 0.000731 0.000000
0.000364 0.000742 0.000000
0.000373 0.000748 0.000000
0.000382 0.000752 0.000000
0.000090 0.000300 0.000000
0.000090 0.000310 0.000000
0.000090 0.000320 0.000000
0.000090 0.000329 0.000000
0.000090 0.000340 0.000000
0.000091 0.000351 0.000000
0.000090 0.000360 0.000000
0.000092 0.000370 0.000000
0.000089 0.000379 0.000000
0.000092 0.000389 0.000000
0.000091 0.000403 0.000000
0.000091 0.000411 0.000000
0.000089 0.000424 0.000000
0.000097 0.000427 0.000000
0.000088 0.000435 0.000000
0.000097 0.000456 0.000000
0.000087 0.000453 0.000000
0.000098 0.000471 0.000000
0.000106 0.000480 0.000000
0.000089 0.000495 0.000000
0.000095 0.000495 0.000000
0.000253 0.000545 0.000000
0.000279 0.000691 0.000000
0.000269 0.000683 0.000000
0.000292 0.000701 0.000000
0.000335 0.000712 0.000000
0.000349 0.000718 0.000000
0.000360 0.000731 0.000000
0.000370 0.000734 0.000000
0.000379 0.000740 0.000000
0.000388 0.000744 0.000000
0.000100 0.000300 0.000000
0.000100 0.000310 0.000000
0.000100 0.000320 0.000000
0.000100 0.000331 0.000000
0.000101 0.000340 0.000000
0.000100 0.000349 0.000000
0.000101 0.000359 0.000000
0.000101 0.000371 0.000000
0.000100 0.000380 0.000000
0.000102 0.000390 0.000000
0.000099 0.000399 0.000000
0.000103 0.000408 0.000000
0.000101 0.000417 0.000000
0.000100 0.000436 0.000000
0.000109 0.000444 0.000000
0.000097 0.000445 0.000000
0.000107 0.000460 0.000000
0.000098 0.000467 0.000000
0.000094 0.000481 0.000000
0.000107 0.000491 0.000000
0.000101 0.000494 0.000000
0.000253 0.000619 0.000000
0.000253 0.000624 0.000000
0.000253 0.000658 0.000000
0.000328 0.000705 0.000000
0.000342 0.000709 0.000000
0.000353 0.000715 0.000000
0.000364 0.000721 0.000000
0.000372 0.000722 0.000000
0.000382 0.000733 0.000000
0.000393 0.000736 0.000000
0.000110 0.000300 0.000000
0.000110 0.000310 0.000000
0.000110 0.000321 0.000000
0.000110 0.000329 0.000000
0.000110 0.000340 0.000000
0.000111 0.000351 0.000000
0.000111 0.000361 0.000000
0.000110 0.000368 0.000000
0.000111 0.000379 0.000000
0.000110 0.000390 0.000000
0.000112 0.000401 0.000000
0.000110 0.000414 0.000000
0.000116 0.000423 0.000000
0.000106 0.000427 0.000000
0.000113 0.000433 0.000000
0.000107 0.000449 0.000000
0.000116 0.000461 0.000000
0.000111 0.000471 0.000000
0.000116 0.000480 0.000000
0.000111 0.000493 0.000000
0.000119 0.000492 0.000000
0.000253 0.000578 0.000000
0.000253 0.000564 0.000000
0.000279 0.000681 0.000000
0.000301 0.000697 0.000000
0.000302 0.000689 0.000000
[...]
POINT_DATA 6231
SCALARS density float 1
LOOKUP_TABLE default
4399.874432
4424.653847
4419.202065
4421.661310
4425.920284
4424.568852
4425.548966
4426.239016
4427.934215
4429.104745
4424.664527
4428.018546
4429.522748
4430.368986
4430.409777
4440.509780
4422.686966
4432.276322
4412.979805
4423.454381
4411.447468
4651.031421
4416.036457
4461.502640
4434.140822
4442.406043
4405.321946
4439.063427
4434.802044
4450.702468
4417.877265
4406.592895
4421.904082
4421.986842
4427.231299
4422.728797
4425.679236
4424.752857
4421.102273
4427.425150
4431.104533
4427.948818
4435.535958
4426.116011
4435.989312
4415.730557
4428.497161
4410.389924
4443.156024
4461.532788
4460.337024
4415.269315
4394.399143
4385.553713
4401.025636
4455.378389
4398.197685
4406.058129
4416.379925
4413.631052
4431.586087
4462.992126
4416.100255
4425.381403
4422.543220
4424.367158
4418.764346
4427.672836
4427.015570
4438.773821
4423.643440
4422.241117
4427.855659
4429.531922
4412.769807
4442.671979
4416.267373
4474.449940
4399.026898
4453.602514
4352.425710
4450.481687
4419.900233
4424.891952
4397.827912
4392.674786
4518.798709
4338.968277
4427.866178
4465.136022
4414.304641
4433.941875
4396.611759
4417.993080
4420.202223
4424.485718
4422.689142
4435.312175
4433.576481
4415.269300
4426.049443
4416.153058
4447.523929
4411.509431
4440.403889
4426.201186
4443.487502
4400.685393
4433.799057
4391.035134
4457.160305
4370.488557
4555.254633
4370.158786
4431.042521
4523.664864
4476.038736
4443.212177
4377.643792
4473.515061
4415.817545
4418.752526
4496.205310
4447.436799
4424.845892
4428.540581
4436.644311
4428.764665
4421.301989
4421.133764
4433.645290
4442.058745
4415.280445
4440.672153
4399.344329
4451.247117
4393.919696
4443.408366
4416.622068
4449.250623
4385.384090
4508.218356
4310.063518
4419.974592
4384.193225
4524.073947
4352.271979
4368.752925
4478.720401
4470.739085
4440.979074
4394.521645
4434.196493
4367.929520
4427.075090
4435.837212
4422.851235
4416.289923
4425.905249
4433.750605
4439.128428
4411.189380
4429.523855
4421.459717
4438.374613
4428.549640
4445.620286
4400.150023
4468.104379
4357.615218
4479.280447
4356.707427
4481.999671
4362.842436
4537.055691
4383.050605
4433.854403
4414.946052
4494.418056
4432.665625
4406.378865
4454.187750
4405.378769
4408.715900
4444.051552
4416.010321
4422.082779
4427.781372
4438.553577
4439.248777
4415.253658
4431.011056
4431.962809
4436.902713
4416.226618
4436.946776
4411.463881
4435.537496
4430.239866
4441.901253
4421.670848
4475.767480
4401.172312
4516.323948
4368.256959
4484.268604
4431.217050
4417.200343
4366.295760
4444.962696
4403.761597
4423.742072
4449.815787
4453.203738
4443.993586
4403.364498
4445.226314
4422.396771
4432.910829
4423.759703
4412.209071
4445.069333
4428.308729
4422.778916
4436.709792
4417.111021
4434.589097
4426.171921
4423.894254
4422.665850
4423.756461
4451.870871
4460.300899
4443.609553
4464.087746
4446.413365
4412.324720
4385.421194
4599.010744
4462.544762
4459.709605
4466.531646
4449.437334
4444.776965
4401.619004
4441.667463
4405.843092
4421.743379
4426.772662
4427.742766
4414.316424
4441.923478
4434.702232
4411.847068
4445.700667
4421.265331
4441.422829
4436.516801
4397.439183
4426.706480
4419.041062
4434.942865
4463.961058
4387.664746
4453.954268
4449.914853
4354.138012
4472.563181
4412.440184
4424.791771
4436.319834
4388.427774
4448.099898
4409.202499
4415.234207
4443.229065
4438.528488
4434.536012
4428.464825
4426.070425
4435.895818
4437.147677
4425.816036
4405.317480
4441.548846
4430.679007
4418.011684
4440.841907
4414.249588
4445.756671
4416.043202
4417.291175
4465.943895
4413.853388
4380.464323
4441.751149
4437.059842
4426.728258
4426.213035
4411.614636
4534.969504
4443.933681
4430.717326
4468.399773
4438.687593
4438.150885
4462.799445
4396.633201
4428.187006
4425.363718
4433.154835
4425.837206
4416.632187
4427.390510
4446.750716
4438.036298
4411.280002
4429.625594
4426.900111
4421.470949
4443.735557
4424.273134
4416.141863
4388.074639
4441.535997
4449.246516
4411.227345
4472.642118
4423.171592
4436.659903
4416.818674
4459.746042
4492.702179
4402.768879
4388.221928
4447.938291
4452.055106
4425.998078
4455.847848
4435.124309
4407.564136
4430.040731
4423.076511
4443.335376
4435.140576
4409.524288
4410.569891
4449.586860
4444.142436
4411.262482
4437.275731
4408.102100
4447.625580
4410.106144
4440.374962
4421.098578
4447.197986
4471.299093
4389.825409
4459.657472
4406.979500
4417.094018
4513.696706
4582.658543
4413.520296
4410.406539
4439.693314
4440.589107
4451.467157
4460.340526
4414.289005
4428.281672
4434.313652
4423.194662
4428.402448
4409.926444
4440.345328
4452.052587
4401.896041
4411.760570
4438.645130
4437.505912
4408.433610
4445.810116
4422.903471
4447.320143
4416.538558
4372.722529
4427.834588
4392.896679
4422.736048
4439.285735
4398.327924
4454.709541
4452.950006
4431.986351
4456.587630
4447.633887
4370.424826
4443.460824
4387.462363
4425.491936
4408.622537
4425.430737
4432.308678
4423.659930
4437.729763
4425.567057
4406.882228
4441.004278
4441.502768
4425.506133
4400.723869
4434.479327
4410.945835
4443.778578
4411.383504
4408.532373
4445.165292
4423.132864
4445.298057
4486.795072
4423.201509
4436.208837
4379.168603
4398.916354
4388.727115
4439.446813
4425.644943
4429.503946
4442.607780
4435.660297
4466.899609
4413.656948
4423.363436
4442.467276
4432.821172
4412.442370
4420.497783
4432.543457
4440.180327
4402.235624
4431.296720
4431.366678
4442.751285
4413.979837
4423.175302
4402.528252
4446.158633
4380.518997
4405.771494
4497.909742
4577.463040
4391.730241
4373.324372
4413.188002
4417.404260
4480.985093
4495.973589
4386.711674
4466.306887
4443.542457
4448.288311
4425.180054
4442.730865
4428.496238
4423.819970
4419.026452
4442.161837
4434.898148
4409.588626
4411.387908
4445.897746
4434.899124
4393.573243
4426.703620
4425.364943
4436.371261
4400.152841
4444.571355
4417.871612
4485.703193
4357.403493
4330.312133
4505.734512
4398.602689
4463.291155
4422.005230
4424.677529
4465.658164
4378.796223
4450.969274
4419.920525
4401.838841
4411.382244
4411.382648
4427.717405
4435.539470
4433.504435
4433.896724
4409.076610
4441.343567
4435.821505
4406.487073
4415.335125
4444.802145
4439.251860
4404.274101
4432.193085
4407.175561
4435.244165
4416.363654
4414.234737
4491.768735
4482.961065
4426.420523
4409.445775
4478.225780
4453.803150
4421.804093
4460.263122
4380.492312
4431.939047
4436.725894
4412.998423
4438.477832
4423.922321
4436.126421
4427.460232
4413.123044
4421.422111
4436.529298
4431.541728
4409.231416
4438.990939
4430.697236
4409.010009
4411.210760
4441.428550
4419.499647
4449.090411
4385.965688
4451.976487
4401.696130
4470.431553
4332.178562
4360.462947
4433.535460
4438.365066
4444.913167
4465.418705
4407.932265
4458.857091
4469.928081
4430.846232
4444.771160
4431.256784
4431.103309
4424.444468
4419.594475
4439.361084
4447.912615
4409.471208
4420.838694
4432.741830
4432.462759
4408.801455
4440.052191
4428.767304
4424.534451
4401.314860
4430.705251
4399.362744
4446.725448
4330.591954
4480.614744
4394.404012
4453.991863
4399.657851
4425.516369
4408.027043
4480.547250
4486.790786
4393.856656
4437.287110
4441.615208
4422.621906
4418.232529
4422.672034
4419.898957
4437.984002
4432.097200
4405.768376
4426.545356
4448.316384
4403.448316
4421.802234
4427.486525
4437.664997
4391.642116
4451.203826
4401.536093
4448.450138
4402.453311
4444.378205
4461.174840
4479.925930
4427.401216
4570.861538
4384.742007
4459.351408
4445.801309
4444.604907
4445.777524
4372.198203
4438.982606
4426.226180
4449.305894
4422.508553
4405.498953
4427.310103
4429.970714
4406.497081
4442.522739
4451.358197
4403.598202
4424.179148
4445.873650
4394.344845
4429.671736
4437.064126
4439.853217
4387.099522
4426.831446
4423.914595
4401.389197
4403.039517
4463.304544
4370.045252
4399.519589
4552.997078
4434.767834
4503.280104
4515.749496
4434.647413
4427.155825
4439.737563
4434.032004
4445.268689
4407.163719
4378.554566
4424.013872
4430.248068
4436.158144
4437.151977
4388.909459
4441.673231
4447.452309
4401.231169
4421.680694
4436.563606
4401.773683
4412.054432
4445.056301
4413.926526
4416.226946
4471.745155
4396.339304
4471.925546
4394.363948
4475.864980
4420.303634
4449.456406
4489.345409
4415.669288
4427.695384
4412.160428
4445.449852
4456.669338
4397.661604
4410.672280
4437.917078
4431.300457
4419.329148
4421.499265
4412.970272
4447.856476
4443.291299
4385.813571
4432.679428
4445.687874
4390.552539
4424.203550
4440.528709
4424.036496
4426.081870
4402.728427
4415.694720
4393.287520
4444.579636
4413.817584
4469.878716
4429.110998
4437.036377
4482.780292
4441.199030
4443.418388
4447.345716
4462.417793
4414.797416
4476.936045
4402.895651
4438.269828
4422.273294
4420.424947
4437.816211
4431.821367
4415.875365
4400.969210
4448.222041
4446.873085
4391.338247
4426.645470
4436.073625
4393.377366
4393.190138
4459.968036
4403.464129
4422.084584
4428.286374
4409.920991
4427.183203
4406.165607
4409.155040
4438.588863
4454.736016
4477.574377
4465.650920
4441.325682
4435.019704
4426.346043
4447.770185
4428.991160
4427.901997
4416.889066
4437.790001
4430.787334
4411.855613
4425.772510
4438.422888
4423.904792
4392.150435
4436.845049
4449.531288
4384.763009
4428.765282
4450.221496
4405.806258
4398.299216
4447.941537
4399.328015
4420.618311
4436.657170
4497.476087
4387.432630
4494.804206
4451.435710
4442.773314
4445.783762
4428.728271
4453.667226
4440.338708
4401.538293
4423.237329
4459.780451
4428.669084
4431.234037
4404.748885
4443.608796
4443.563602
4406.806232
4405.088247
4450.768298
4434.345458
4391.156584
4420.604975
4420.674276
4386.679903
4418.577906
4433.557356
4395.360693
4410.562467
4459.201732
4369.327022
4458.663959
4434.571860
4462.162596
4453.385031
4467.478151
4440.642207
4449.605145
4464.853634
4440.996731
4450.042527
4425.751931
4414.288792
4426.243842
4431.673593
4437.412984
4440.383402
4392.224058
4448.934571
4444.885831
4401.227020
4399.156229
4439.967472
4445.718856
4399.205014
4418.117067
4428.711751
4419.830400
4389.725078
4454.217227
4404.625195
4431.770334
4450.772628
4434.558901
4477.497298
4466.513688
4475.765115
4437.003541
4461.882429
4438.856780
4432.277240
4461.831569
4413.759547
4424.926427
4429.101389
4422.954857
4421.538971
4413.896561
4443.230365
4443.118886
4392.279033
4436.595841
4442.093692
4418.409560
4389.726420
4430.552816
4444.155463
4402.377260
4410.324688
4442.863986
4427.896516
4405.961071
4456.736955
4401.463803
4432.363659
4466.384855
4441.382650
4465.344553
4447.157954
4435.270729
4448.749876
4426.162708
4463.999202
4408.903914
4437.735563
4425.571986
4426.007196
4436.425485
4433.774326
4428.728824
4397.440423
4441.942836
4449.830435
4390.027498
4423.378120
4443.129738
4428.882301
4385.875335
4424.424946
4433.345563
4431.175290
4397.529937
4439.575566
4419.378713
4445.663373
4466.295230
4403.369522
4479.602097
4418.109266
4450.421312
4451.093822
4452.269941
4402.163475
4418.904994
4473.862939
4428.313897
4421.251456
4433.007940
4430.847407
4416.999191
4422.811208
4440.702931
4433.696998
4391.078291
4445.952210
4448.436772
4392.421975
4417.593292
4439.626391
4443.267347
4405.054091
4405.086922
4448.346151
4416.748506
4418.786855
4421.458039
4461.442486
4413.369575
4424.932227
4430.953545
4456.417296
4427.874403
4445.017931
4440.172133
4430.404777
4411.845049
4425.731889
4429.513353
4431.889689
4418.377931
4443.063196
4444.382575
4410.361108
4411.122493
4438.783263
4428.062884
4399.071824
4449.606627
4435.567282
4405.378190
4388.772498
4431.582042
4443.208886
4409.756316
4418.162277
4448.026020
4419.211974
4436.053619
4430.018694
4463.501941
4446.526453
4410.527973
4453.907611
4470.634225
4474.505726
4512.310397
4418.434401
4422.144517
4430.016654
4433.329571
4435.397526
4431.377177
4403.996578
4446.072800
4437.819612
4420.325036
4416.049852
4422.557290
4445.679755
4393.920170
4431.882358
4450.374743
4423.610308
4397.004774
4428.270211
4422.105530
4438.315807
4434.743383
4469.994779
4442.911223
4421.030350
4423.148020
4413.003893
4462.072402
4415.888995
4440.223843
4478.951560
4425.640983
4452.359400
4436.283545
4428.736305
4424.823621
4431.672926
4444.634548
4438.136451
4403.606307
4419.560997
4432.499964
4432.276821
4405.221025
4435.730583
4444.559660
4391.116717
4400.360178
4436.854293
4440.735577
4408.630863
4431.616214
4427.087685
4430.766388
4437.896474
4448.437510
4469.815541
4437.038653
4414.492121
4462.844219
4419.703752
4451.831057
4448.304803
4412.710960
4437.757073
4419.281276
4448.609552
4420.838837
4425.870408
4403.885300
4443.608176
4456.015542
4408.308343
4414.061596
4430.076057
4433.301149
4405.705413
4444.302042
4444.650211
4414.275748
4400.737521
4421.600080
4417.925990
4428.423846
4402.352805
4439.384859
4443.894867
4399.937898
4437.080144
4433.285930
4412.312950
4465.269812
4391.412833
4490.442864
4408.405728
4430.847462
4429.926787
4447.430097
4407.818499
4439.200578
4449.014504
4409.512043
4389.853380
4441.603933
4441.268922
4415.732859
4422.396349
4415.116254
4440.941902
4394.859710
4400.320773
4444.708508
4438.578620
4389.541393
4462.639088
4436.113903
4453.005700
4406.461537
4452.713160
4418.019740
4442.490607
4473.089289
4472.370354
4403.148318
4484.416282
4498.054981
4443.184920
4434.905435
4414.809177
4447.162887
4427.504349
4407.974916
4451.057198
4447.088709
4420.556857
4424.226287
4424.829820
4440.309886
4434.937695
4412.584287
4447.803075
4443.326744
4411.589087
4411.399323
4451.246251
4380.830830
4432.291962
4449.731555
4459.833249
4439.055321
4407.978074
4441.526938
4429.068732
4452.368780
4482.109392
4456.888009
4459.834035
4423.126470
4425.830822
4442.348822
4439.703548
4411.947426
4469.086345
4423.240207
4405.114151
4432.029839
4405.820457
4443.740965
4426.390268
4421.592876
4434.151452
4416.160306
4393.746053
4433.487662
4433.303445
4432.518803
4417.763023
4438.556901
4438.597036
4395.092766
4404.353237
4458.739825
4460.710712
4406.024955
4408.052664
4482.074485
4426.542166
4465.284867
4420.470941
4429.391834
4438.085623
4415.026522
4423.338885
4421.136315
4403.101078
4449.255565
4447.613349
4427.188234
4430.981318
4420.346438
4442.496938
4412.843034
4444.325524
4431.083410
4442.402413
4399.125507
4447.370373
4440.648114
4429.808216
4418.176037
4454.383113
4443.039076
4452.777900
4432.921459
4461.539425
4432.132523
4485.445202
4441.806767
4463.208441
4433.896338
4431.856551
4402.333170
4441.242681
4444.840195
4424.322105
4432.907220
4433.666283
4387.948504
4441.890574
4414.472657
4411.763201
4439.316938
4413.243410
4423.535421
4431.267186
4409.854083
4432.797130
4454.436648
4411.002172
4445.135572
4445.232184
4437.379332
4422.702375
4442.953837
4455.335019
4453.427127
4464.435226
4480.925717
4454.347418
4465.280428
4427.322762
4419.596361
4439.352283
4440.705911
4402.849653
4440.587150
4425.123704
4408.563428
4454.844661
4433.640111
4423.367557
4459.116821
4419.259733
4446.698925
4402.687553
4423.116743
4430.607763
4413.542145
4440.415002
4413.408139
4439.425929
4406.660815
4449.334368
4446.826957
4446.183393
4464.721610
4454.002652
4447.408806
4447.971185
4438.546790
4465.338923
4424.364979
4428.327278
4420.941102
4407.108739
4458.271846
4429.646307
4414.740278
4440.715497
4409.982219
4421.471165
4408.922541
4412.975053
4410.305931
4430.151144
4447.458948
4432.776094
4446.782365
4398.463385
4434.896510
4434.216554
4413.207537
4437.667804
4436.518210
4435.201534
4441.290251
4437.453593
4465.413597
4445.532658
4472.085718
4458.769368
4460.560222
4423.344615
4439.184267
4432.482870
4431.552550
4450.742294
4413.316783
4450.484218
4422.458019
4425.559813
4443.887003
4440.268514
4433.768393
4440.185050
4439.871271
4398.335660
4442.894215
4402.505210
4452.015826
4435.008936
4424.786010
4446.354223
4437.167836
4434.500284
4454.258565
4434.241729
4469.904390
4450.474133
4450.596751
4459.034026
4455.883670
4457.517892
4435.173239
4434.760617
4410.284174
4433.244068
4381.826677
4451.100004
4435.042308
4414.801102
4457.387233
4408.875642
4414.429353
4407.662735
4421.225435
4422.234897
4423.653447
4430.204729
4425.653893
4450.727485
4415.831514
4439.887293
4420.252195
4409.921299
4447.337519
4442.117325
4450.910579
4434.032509
4448.999103
4465.122772
4457.297856
4456.826455
4456.513673
4432.125232
4428.043348
4426.650515
4455.810623
4420.312660
4450.857893
4407.051910
4462.781893
4400.097284
4447.609029
4446.037141
4429.874987
4437.318549
4417.553282
4444.768471
4417.536114
4439.027290
4408.678223
4448.303417
4440.108771
4433.249373
4465.411292
4422.773824
4455.544448
4451.040538
4451.053271
4471.089343
4441.606446
4458.216327
4451.492173
4454.035860
4423.974704
4425.548775
4432.907064
4401.754956
4433.905305
4414.923915
4416.840399
4442.422664
4441.844657
4437.075800
4413.024878
4408.608257
4429.633894
4428.201300
4431.279155
4454.623573
4439.376175
4436.911967
4446.331553
4408.628466
4441.163681
4416.815717
4413.497682
4455.713060
4429.331885
4450.722006
4450.806628
4455.069537
4454.126026
4455.422112
4452.695338
4428.107377
4435.398419
4432.159027
4429.665947
4454.110232
4442.570889
4454.190972
4412.429988
4430.550230
4435.803856
4456.913505
4452.000093
4415.098694
4448.792686
4398.764025
4453.650118
4411.120728
4448.647581
4425.109911
4444.584154
4463.738345
4413.531842
4463.767803
4405.709320
4461.848950
4454.670746
4450.145913
4461.637054
4442.961979
4454.757197
4451.125139
4437.513003
4427.912629
4416.808643
4427.082054
4394.904296
4449.705505
4437.333772
4402.845731
4427.661528
4420.815186
4423.236998
4414.717131
4456.968010
4420.708872
4418.684565
4410.328829
4465.707882
4426.044076
4441.964077
4424.577211
4418.026564
4442.020210
4470.841694
4398.227762
4463.494773
4416.247213
4464.476078
4450.717196
4445.652846
4456.466910
4448.825212
4432.221114
4427.907279
4445.048913
4444.477716
4432.827474
4433.087797
4431.633580
4442.523238
4441.853112
4414.685875
4441.858960
4422.073782
4446.777718
4404.045999
4445.148712
4431.620141
4441.211621
4413.175782
4446.703460
4460.145460
4430.651611
4428.326409
4427.603532
4468.138343
4419.715484
4429.116701
4437.983738
4444.246367
4466.925026
4453.110017
4452.043662
4427.549470
4431.719692
4430.341725
4403.853235
4439.774503
4426.805935
4437.606178
4444.834227
4412.353805
4444.257800
4420.014283
4422.522287
4433.976466
4456.775386
4413.339174
4416.006859
4451.996874
4442.313903
4422.845798
4422.673021
4419.812276
4437.098358
4432.328879
4452.643750
4418.020105
4467.929463
4423.406686
4439.114959
4437.881344
4439.407126
4451.802290
4434.912772
4434.799616
4426.598163
4449.826941
4459.502392
4418.903154
4418.972213
4408.632102
4445.120549
4455.060926
4420.157374
4436.661442
4441.421261
4421.369665
4443.141777
4444.421016
4435.752346
4425.664037
4420.449201
4450.899023
4439.108307
4448.026945
4440.705655
4438.942798
4460.759135
4443.923456
4440.390666
4452.649168
4444.049678
4461.649351
4451.292229
4431.610800
4439.548320
4421.975278
4435.546529
4390.238292
4461.533509
4436.399953
4434.017451
4445.878918
4421.458790
4425.414922
4459.153723
4402.893563
4436.527300
4441.546232
4419.281931
4424.778092
4445.038359
4447.081449
4416.450738
4447.065187
4416.047323
4434.156366
4457.269519
4429.682079
4434.619814
4456.346886
4424.999011
4442.674406
4434.878811
4449.512956
4432.665911
4436.673962
4422.116757
4443.377520
4451.770887
4418.915754
4407.587543
4443.389193
4423.959269
4455.387368
4449.791047
4442.828541
4448.964869
4406.170812
4415.270773
4435.465741
4454.941079
4415.576135
4428.973161
4412.533663
4455.150925
4457.807567
4442.130681
4440.232637
4448.947592
4450.812996
4446.469075
4449.181302
4459.579139
4447.643994
4451.197651
4440.176797
4428.082767
4443.555716
4421.582331
4412.670337
4442.336776
4430.301807
4443.843086
4420.798848
4432.940980
4412.251243
4442.090528
4459.183211
4443.817817
4447.836953
4421.523877
4434.467157
4436.021066
4450.499944
4436.241963
4442.537547
4431.355771
4424.986561
4438.240026
4422.299440
4443.020636
4430.849370
4442.116324
4436.302236
4448.835888
4447.922972
4437.678308
4421.110028
4441.385579
4426.755101
4452.609801
4437.290134
4422.630459
4433.282435
4427.650879
4451.619746
4434.977856
4438.716314
4407.371427
4459.702811
4401.418965
4456.671306
4438.596874
4445.973878