# vtk DataFile Version 2.0
mfree iwf
ASCII

DATASET UNSTRUCTURED_GRID
POINTS 6231 float
0.000000 0.000300 0.000000
0.000000 0.000310 0.000000
0.000000 0.000320 0.000000
0.000000 0.000330 0.000000
0.000000 0.000340 0.000000
0.000000 0.000350 0.000000
0.000000 0.000360 0.000000
0.000001 0.000370 0.000000
0.000001 0.000380 0.000000
0.000001 0.000390 0.000000
0.000001 0.000400 0.000000
0.000001 0.000410 0.000000
0.000001 0.000420 0.000000
0.000001 0.000430 0.000000
0.000001 0.000440 0.000000
0.000002 0.000450 0.000000
0.000002 0.000460 0.000000
0.000002 0.000471 0.000000
0.000002 0.000480 0.000000
0.000002 0.000492 0.000000
0.000006 0.000501 0.000000
0.000797 0.000951 0.000000
0.000867 0.000992 0.000000
0.000813 0.000959 0.000000
0.000880 0.000997 0.000000
0.000901 0.001004 0.000000
0.000950 0.001011 0.000000
0.000958 0.001010 0.000000
0.000970 0.001005 0.000000
0.000983 0.001003 0.000000
0.001014 0.001006 0.000000
0.000010 0.000300 0.000000
0.000010 0.000310 0.000000
0.000010 0.000320 0.000000
0.000010 0.000330 0.000000
0.000010 0.000340 0.000000
0.000010 0.000350 0.000000
0.000010 0.000360 0.000000
0.000011 0.000370 0.000000
0.000011 0.000380 0.000000
0.000011 0.000390 0.000000
0.000011 0.000400 0.000000
0.000011 0.000410 0.000000
0.000011 0.000420 0.000000
0.000011 0.000430 0.000000
0.000011 0.000440 0.000000
0.000011 0.000450 0.000000
0.000012 0.000460 0.000000
0.000012 0.000472 0.000000
0.000013 0.000478 0.000000
0.000009 0.000492 0.000000
0.000013 0.000498 0.000000
0.000921 0.001002 0.000000
0.000936 0.001003 0.000000
0.000943 0.001005 0.000000
0.000950 0.001003 0.000000
0.000966 0.000997 0.000000
0.000977 0.000997 0.000000
0.000992 0.000994 0.000000
0.001003 0.000995 0.000000
0.001009 0.000993 0.000000
0.001011 0.001001 0.000000
0.000020 0.000300 0.000000
0.000020 0.000310 0.000000
0.000020 0.000320 0.000000
0.000020 0.000330 0.000000
0.000021 0.000340 0.000000
0.000020 0.000350 0.000000
0.000021 0.000360 0.000000
0.000021 0.000370 0.000000
0.000020 0.000380 0.000000
0.000021 0.000390 0.000000
0.000021 0.000400 0.000000
0.000022 0.000410 0.000000
0.000021 0.000420 0.000000
0.000022 0.000431 0.000000
0.000020 0.000440 0.000000
0.000023 0.000451 0.000000
0.000021 0.000460 0.000000
0.000022 0.000470 0.000000
0.000021 0.000482 0.000000
0.000024 0.000494 0.000000
0.000020 0.000497 0.000000
0.000888 0.000989 0.000000
0.000917 0.000997 0.000000
0.000927 0.000999 0.000000
0.000932 0.000997 0.000000
0.000942 0.000990 0.000000
0.000957 0.000995 0.000000
0.000984 0.000990 0.000000
0.000998 0.000990 0.000000
0.001006 0.000982 0.000000
0.001014 0.000980 0.000000
0.000030 0.000300 0.000000
0.000030 0.000310 0.000000
0.000030 0.000320 0.000000
0.000030 0.000330 0.000000
0.000030 0.000340 0.000000
0.000030 0.000350 0.000000
0.000031 0.000360 0.000000
0.000030 0.000370 0.000000
0.000032 0.000380 0.000000
0.000030 0.000390 0.000000
0.000031 0.000400 0.000000
0.000031 0.000411 0.000000
0.000031 0.000420 0.000000
0.000031 0.000430 0.000000
0.000031 0.000440 0.000000
0.000031 0.000450 0.000000
0.000031 0.000459 0.000000
0.000036 0.000473 0.000000
0.000029 0.000478 0.000000
0.000033 0.000488 0.000000
0.000032 0.000497 0.000000
0.000063 0.000500 0.000000
0.000909 0.000992 0.000000
0.000925 0.000983 0.000000
0.000953 0.000986 0.000000
0.000962 0.000979 0.000000
0.000968 0.000990 0.000000
0.000972 0.000983 0.000000
0.000983 0.000981 0.000000
0.000990 0.000980 0.000000
0.001013 0.000972 0.000000
0.000040 0.000300 0.000000
0.000040 0.000310 0.000000
0.000040 0.000320 0.000000
0.000040 0.000330 0.000000
0.000040 0.000341 0.000000
0.000041 0.000349 0.000000
0.000040 0.000360 0.000000
0.000040 0.000370 0.000000
0.000041 0.000380 0.000000
0.000040 0.000390 0.000000
0.000042 0.000400 0.000000
0.000041 0.000410 0.000000
0.000042 0.000420 0.000000
0.000041 0.000431 0.000000
0.000042 0.000439 0.000000
0.000043 0.000450 0.000000
0.000042 0.000460 0.000000
0.000037 0.000469 0.000000
0.000045 0.000477 0.000000
0.000043 0.000496 0.000000
0.000040 0.000498 0.000000
0.000707 0.000802 0.000000
0.000917 0.000983 0.000000
0.000936 0.000983 0.000000
0.000943 0.000977 0.000000
0.000951 0.000984 0.000000
0.000972 0.000974 0.000000
0.000994 0.000970 0.000000
0.000993 0.000960 0.000000
0.001003 0.000974 0.000000
0.001011 0.000962 0.000000
0.000050 0.000300 0.000000
0.000050 0.000310 0.000000
0.000050 0.000320 0.000000
0.000050 0.000329 0.000000
0.000050 0.000340 0.000000
0.000050 0.000350 0.000000
0.000050 0.000361 0.000000
0.000052 0.000371 0.000000
0.000050 0.000380 0.000000
0.000052 0.000390 0.000000
0.000051 0.000400 0.000000
0.000050 0.000411 0.000000
0.000052 0.000420 0.000000
0.000051 0.000430 0.000000
0.000053 0.000440 0.000000
0.000048 0.000451 0.000000
0.000054 0.000458 0.000000
0.000053 0.000469 0.000000
0.000056 0.000483 0.000000
0.000048 0.000488 0.000000
0.000050 0.000498 0.000000
0.000906 0.000998 0.000000
0.000863 0.000982 0.000000
0.000931 0.000977 0.000000
0.000946 0.000966 0.000000
0.000959 0.000969 0.000000
0.000977 0.000967 0.000000
0.000968 0.000963 0.000000
0.000985 0.000969 0.000000
0.001001 0.000961 0.000000
0.001008 0.000951 0.000000
0.000060 0.000300 0.000000
0.000060 0.000310 0.000000
0.000060 0.000320 0.000000
0.000061 0.000331 0.000000
0.000060 0.000339 0.000000
0.000060 0.000350 0.000000
0.000061 0.000359 0.000000
0.000059 0.000368 0.000000
0.000061 0.000380 0.000000
0.000060 0.000391 0.000000
0.000062 0.000400 0.000000
0.000060 0.000409 0.000000
0.000063 0.000419 0.000000
0.000059 0.000431 0.000000
0.000065 0.000440 0.000000
0.000060 0.000449 0.000000
0.000065 0.000460 0.000000
0.000055 0.000472 0.000000
0.000064 0.000475 0.000000
0.000068 0.000486 0.000000
0.000058 0.000496 0.000000
0.000896 0.000996 0.000000
0.000908 0.000982 0.000000
0.000925 0.000966 0.000000
0.000938 0.000967 0.000000
0.000954 0.000957 0.000000
0.000960 0.000951 0.000000
0.000988 0.000950 0.000000
0.000978 0.000957 0.000000
0.000997 0.000950 0.000000
0.001005 0.000943 0.000000
0.000070 0.000300 0.000000
0.000070 0.000310 0.000000
0.000070 0.000319 0.000000
0.000070 0.000329 0.000000
0.000071 0.000340 0.000000
0.000069 0.000351 0.000000
0.000073 0.000359 0.000000
0.000070 0.000374 0.000000
0.000081 0.000376 0.000000
0.000070 0.000389 0.000000
0.000073 0.000400 0.000000
0.000069 0.000411 0.000000
0.000074 0.000421 0.000000
0.000068 0.000429 0.000000
0.000075 0.000438 0.000000
0.000067 0.000451 0.000000
0.000077 0.000458 0.000000
0.000073 0.000470 0.000000
0.000076 0.000486 0.000000
0.000068 0.000495 0.000000
0.000076 0.000496 0.000000
0.000700 0.000779 0.000000
0.000897 0.000983 0.000000
0.000918 0.000972 0.000000
0.000938 0.000947 0.000000
0.000955 0.000967 0.000000
0.000969 0.000951 0.000000
0.000979 0.000950 0.000000
0.000974 0.000940 0.000000
0.000994 0.000940 0.000000
0.001002 0.000933 0.000000
0.000080 0.000300 0.000000
0.000080 0.000310 0.000000
0.000081 0.000321 0.000000
0.000079 0.000331 0.000000
0.000082 0.000340 0.000000
0.000079 0.000349 0.000000
0.000082 0.000362 0.000000
0.000072 0.000369 0.000000
0.000076 0.000383 0.000000
0.000079 0.000392 0.000000
0.000089 0.000397 0.000000
0.000079 0.000410 0.000000
0.000085 0.000416 0.000000
0.000078 0.000431 0.000000
0.000086 0.000445 0.000000
0.000077 0.000448 0.000000
0.000086 0.000463 0.000000
0.000074 0.000470 0.000000
0.000087 0.000473 0.000000
0.000085 0.000482 0.000000
0.000084 0.000495 0.000000
0.000886 0.000994 0.000000
0.000858 0.000987 0.000000
0.000923 0.000954 0.000000
0.000934 0.000961 0.000000
0.000946 0.000953 0.000000
0.000953 0.000942 0.000000
0.000963 0.000941 0.000000
0.000984 0.000938 0.000000
0.000991 0.000931 0.000000
0.000999 0.000924 0.000000
0.000090 0.000300 0.000000
0.000090 0.000310 0.000000
0.000090 0.000319 0.000000
0.000090 0.000329 0.000000
0.000090 0.000340 0.000000
0.000089 0.000350 0.000000
0.000091 0.000360 0.000000
0.000089 0.000369 0.000000
0.000092 0.000379 0.000000
0.000090 0.000387 0.000000
0.000085 0.000404 0.000000
0.000094 0.000410 0.000000
0.000088 0.000425 0.000000
0.000096 0.000426 0.000000
0.000089 0.000435 0.000000
0.000097 0.000455 0.000000
0.000087 0.000453 0.000000
0.000097 0.000471 0.000000
0.000106 0.000480 0.000000
0.000089 0.000494 0.000000
0.000094 0.000495 0.000000
0.000713 0.000818 0.000000
0.000891 0.000978 0.000000
0.000879 0.000983 0.000000
0.000910 0.000973 0.000000
0.000932 0.000942 0.000000
0.000958 0.000933 0.000000
0.000972 0.000932 0.000000
0.000978 0.000927 0.000000
0.000988 0.000922 0.000000
0.000995 0.000914 0.000000
0.000100 0.000300 0.000000
0.000100 0.000310 0.000000
0.000100 0.000321 0.000000
0.000100 0.000331 0.000000
0.000101 0.000340 0.000000
0.000101 0.000350 0.000000
0.000100 0.000360 0.000000
0.000101 0.000371 0.000000
0.000100 0.000381 0.000000
0.000100 0.000391 0.000000
0.000099 0.000400 0.000000
0.000103 0.000406 0.000000
0.000101 0.000418 0.000000
0.000100 0.000436 0.000000
0.000110 0.000443 0.000000
0.000096 0.000445 0.000000
0.000107 0.000460 0.000000
0.000098 0.000467 0.000000
0.000095 0.000481 0.000000
0.000106 0.000491 0.000000
0.000101 0.000494 0.000000
0.000818 0.000963 0.000000
0.000827 0.000969 0.000000
0.000852 0.000984 0.000000
0.000934 0.000952 0.000000
0.000947 0.000939 0.000000
0.000948 0.000928 0.000000
0.000969 0.000923 0.000000
0.000960 0.000919 0.000000
0.000983 0.000916 0.000000
0.000991 0.000906 0.000000
0.000110 0.000300 0.000000
0.000110 0.000310 0.000000
0.000110 0.000320 0.000000
0.000110 0.000329 0.000000
0.000111 0.000340 0.000000
0.000109 0.000351 0.000000
0.000111 0.000359 0.000000
0.000111 0.000370 0.000000
0.000111 0.000378 0.000000
0.000111 0.000389 0.000000
0.000113 0.000400 0.000000
0.000110 0.000414 0.000000
0.000116 0.000422 0.000000
0.000107 0.000427 0.000000
0.000112 0.000433 0.000000
0.000106 0.000449 0.000000
0.000115 0.000461 0.000000
0.000111 0.000471 0.000000
0.000116 0.000480 0.000000
0.000111 0.000493 0.000000
0.000119 0.000492 0.000000
0.000768 0.000915 0.000000
0.000721 0.000839 0.000000
0.000885 0.000973 0.000000
0.000907 0.000961 0.000000
0.000897 0.000959 0.000000
[...]
POINT_DATA 6231
SCALARS density float 1
LOOKUP_TABLE default
4413.180465
4427.174433
4423.794128
4422.282334
4422.537737
4422.351680
4424.198672
4425.442436
4427.999208
4428.843244
4426.056334
4430.065435
4429.323183
4431.596520
4431.136026
4439.605325
4423.189958
4432.393659
4413.323646
4424.172648
4411.237416
4422.818653
4426.622638
4430.979082
4441.451947
4418.405493
4397.559340
4427.699397
4450.578145
4452.480976
4417.638557
4418.720202
4424.961022
4423.816307
4426.764887
4427.217994
4429.448046
4425.613563
4432.262704
4428.990125
4431.126417
4426.826093
4434.208710
4423.469130
4433.665914
4415.759363
4428.191022
4411.727280
4441.317220
4463.472440
4459.937601
4416.092088
4411.844200
4416.089871
4437.389191
4506.362437
4395.522576
4399.539017
4426.059738
4398.619311
4454.189440
4440.618913
4418.811172
4426.845459
4428.426515
4425.472969
4426.221038
4428.043363
4422.553241
4429.472682
4412.146339
4431.945480
4422.268009
4432.676167
4420.992188
4441.373034
4418.866634
4471.882452
4400.056505
4453.743087
4350.888350
4451.429269
4421.272049
4419.345793
4429.358641
4413.048715
4499.583497
4332.179649
4367.959078
4415.920172
4423.577874
4424.488182
4401.292421
4426.530860
4431.267241
4425.104965
4428.365883
4431.624459
4428.077746
4431.506336
4437.587098
4430.941858
4444.225829
4411.010358
4437.798316
4421.225485
4440.769987
4403.121026
4430.952942
4395.203948
4454.036459
4372.987811
4551.356770
4372.310639
4431.202601
4455.924293
4436.453900
4479.705700
4342.310303
4488.055888
4465.313530
4412.656475
4476.765333
4433.601974
4426.734412
4426.357090
4429.786265
4436.078646
4429.230422
4434.028940
4431.056645
4423.528558
4422.455320
4417.860322
4421.665096
4448.694343
4405.035528
4444.604997
4420.462344
4451.346206
4388.573669
4508.096004
4308.731660
4419.452267
4384.891191
4431.425289
4412.614503
4434.313417
4413.451843
4479.558907
4427.826684
4410.512680
4483.266983
4442.119457
4413.298410
4427.690435
4436.452718
4431.435096
4430.641969
4428.588181
4432.340487
4426.534471
4448.027957
4433.349309
4441.430942
4426.625644
4426.165974
4417.345274
4454.772627
4371.001561
4478.477273
4361.978760
4472.104627
4358.437650
4538.901744
4381.800005
4444.793415
4429.097397
4454.545466
4412.953359
4442.216876
4451.362081
4386.519382
4399.544439
4419.878286
4418.223185
4436.192017
4435.953491
4417.492756
4441.953610
4433.744528
4442.145046
4411.938588
4429.123265
4385.932764
4440.955344
4413.581282
4440.900863
4416.795611
4431.337130
4420.563639
4464.414047
4399.668557
4520.462394
4379.421484
4481.147099
4432.351237
4416.623108
4395.782239
4407.461264
4458.213839
4462.982542
4422.169067
4405.306673
4418.942298
4423.179030
4427.369636
4428.984430
4422.324096
4435.968478
4438.305174
4397.010069
4449.730573
4404.704966
4444.958020
4391.050079
4460.078692
4393.428514
4439.448564
4402.446937
4441.174311
4436.706996
4457.031757
4443.126310
4450.289486
4447.464410
4413.176340
4390.973751
4439.226328
4456.688254
4437.075767
4422.403975
4432.769261
4424.888677
4455.597703
4439.248104
4448.379831
4412.677780
4427.835057
4431.163975
4427.956899
4408.765743
4444.053706
4434.678312
4426.693872
4451.947608
4424.492547
4427.658258
4416.667460
4436.876736
4427.978964
4437.852353
4462.725379
4386.156768
4449.760967
4450.981711
4366.281467
4463.924351
4415.646087
4433.262129
4414.803288
4414.304013
4446.367244
4378.541164
4452.837402
4429.056258
4402.436327
4433.238237
4439.484956
4430.123429
4431.237303
4420.558788
4422.240904
4438.597630
4405.337196
4446.147910
4441.119895
4455.058067
4440.718422
4440.787340
4397.345501
4425.182926
4456.008594
4416.358221
4380.391809
4439.611939
4434.486433
4426.136490
4426.160168
4414.676515
4429.208299
4429.209385
4425.155350
4483.302982
4416.147946
4389.612733
4442.602970
4444.636761
4426.777912
4413.833955
4427.978053
4420.546012
4438.662237
4434.260058
4417.748646
4441.181196
4430.523231
4404.329865
4433.758726
4397.554643
4443.729814
4447.711408
4413.672598
4390.401973
4448.612389
4453.353179
4418.022760
4469.629770
4415.299027
4438.430772
4419.183569
4422.955633
4431.898150
4422.833683
4454.147943
4463.472137
4373.404346
4400.594488
4466.292412
4451.096409
4422.925363
4427.353310
4434.469514
4432.804808
4415.920669
4434.602919
4434.450721
4419.301763
4451.179232
4433.105659
4445.728517
4401.876720
4447.423938
4404.001522
4450.213478
4426.526342
4432.870501
4464.196703
4391.407342
4460.249242
4405.139474
4409.817428
4438.255206
4439.755038
4438.846199
4397.533586
4441.841095
4451.346338
4465.592884
4410.340389
4423.555594
4453.920252
4429.917334
4431.629103
4416.992855
4438.620863
4439.977817
4411.285969
4421.518304
4441.856364
4380.855142
4462.325463
4411.090872
4415.227711
4451.435394
4439.695166
4427.223243
4375.859916
4445.538983
4394.723017
4434.884441
4431.062779
4393.125461
4442.318615
4418.898946
4431.660503
4453.027534
4454.936422
4421.680620
4339.626615
4459.635252
4387.941770
4415.794647
4431.296289
4435.263309
4429.378774
4435.298608
4407.535381
4451.208882
4443.094470
4419.578173
4459.035746
4432.862285
4425.795035
4417.002227
4419.108289
4450.423950
4417.582488
4450.938527
4393.883028
4450.736899
4498.374320
4417.297958
4438.135283
4436.105496
4421.808497
4422.669750
4432.597343
4428.889232
4443.182868
4467.770513
4473.319888
4496.960000
4453.079120
4435.283799
4438.843391
4424.644587
4428.887449
4433.781789
4424.346829
4412.901584
4406.874234
4452.357572
4392.690865
4430.868527
4435.613216
4426.262295
4419.037826
4430.619522
4394.173596
4422.172331
4502.329719
4571.146030
4384.238298
4372.777212
4418.468007
4418.006897
4444.907252
4444.531663
4374.408007
4457.610730
4419.303668
4403.404076
4403.558001
4450.052424
4432.932874
4428.932292
4434.157343
4426.983687
4433.100017
4409.160193
4434.143147
4467.598531
4406.145609
4435.933838
4432.140566
4432.320874
4437.284082
4409.562090
4467.230114
4393.821020
4490.068248
4352.635069
4332.433137
4485.327561
4392.498300
4411.847479
4436.262887
4440.157722
4482.622551
4445.919195
4419.370607
4437.030032
4403.347023
4425.360179
4412.055023
4430.967092
4428.424702
4442.922485
4422.001466
4427.467542
4445.216136
4397.597908
4413.952093
4400.956150
4460.206769
4417.746036
4388.208265
4458.808160
4403.321352
4425.134311
4447.849692
4403.648231
4488.568853
4481.575330
4418.487159
4404.845107
4426.130724
4452.492077
4407.314171
4369.368581
4469.633738
4453.969247
4422.225394
4403.280042
4431.373259
4429.138151
4436.808549
4432.953634
4417.652730
4442.072479
4425.778537
4426.602170
4434.134112
4433.359432
4437.477120
4406.940253
4468.304638
4435.446891
4412.533688
4454.492783
4425.185987
4433.509670
4394.089824
4488.018475
4360.903868
4366.180562
4425.379370
4422.728100
4441.765140
4445.862228
4399.897411
4450.344876
4439.394268
4422.646660
4467.908273
4436.267360
4439.257035
4429.421920
4437.660485
4429.500821
4441.985523
4427.994070
4424.467087
4442.452258
4395.381054
4447.922084
4450.067911
4401.394109
4421.805194
4421.435774
4440.405044
4384.060335
4465.988780
4352.308979
4457.070307
4395.756480
4444.349097
4397.471561
4431.241139
4434.584478
4434.222871
4456.740369
4403.828308
4461.299722
4456.218269
4414.612627
4411.704317
4421.868873
4430.328783
4420.141570
4431.437524
4410.170619
4445.419380
4438.423359
4417.447890
4454.744794
4411.444800
4414.651058
4429.549872
4456.513988
4411.306784
4434.375641
4432.172814
4449.863286
4370.175701
4459.879832
4434.517430
4555.978982
4382.372493
4474.003860
4426.409520
4439.247727
4441.693540
4389.962872
4456.696727
4397.542447
4406.502804
4426.180967
4419.338967
4435.968691
4431.080518
4441.160175
4438.008205
4418.858853
4430.293122
4411.960595
4441.027556
4418.375346
4426.315877
4429.736026
4418.057123
4418.629883
4441.451422
4415.119090
4456.426465
4434.784054
4473.571692
4380.390437
4387.305870
4438.107982
4410.970898
4425.139254
4456.397585
4415.546217
4400.715393
4426.421202
4444.939463
4457.570480
4413.962534
4407.170670
4435.453121
4432.673187
4417.921262
4433.620919
4427.558128
4437.268109
4433.215336
4412.492695
4420.288341
4447.102841
4405.821208
4436.356191
4442.532235
4432.602026
4401.875209
4459.357680
4429.446378
4443.709933
4396.524674
4462.178922
4409.587706
4446.895888
4416.678700
4423.432010
4434.051830
4412.795440
4389.065722
4446.823396
4365.162111
4419.335586
4443.492702
4427.796534
4434.215558
4434.371455
4439.248671
4420.946626
4416.943894
4418.015953
4445.092079
4426.895614
4418.500726
4426.218988
4424.080621
4455.494198
4396.652975
4421.503263
4443.673257
4378.948343
4415.851945
4423.027329
4444.150446
4424.550530
4427.296674
4424.490112
4464.682424
4417.859077
4452.134838
4474.949507
4366.594954
4466.269039
4382.281657
4420.660561
4429.454907
4433.293363
4426.334312
4425.902009
4422.605251
4453.388779
4424.158786
4410.751404
4405.918035
4439.003427
4424.724630
4430.612768
4434.926770
4430.646517
4442.852614
4410.532095
4451.745662
4410.195114
4413.551604
4442.161859
4415.826103
4413.918775
4456.286112
4412.174701
4431.675143
4455.606326
4430.894535
4367.130967
4440.529384
4428.670594
4447.624195
4426.662959
4432.898970
4419.064110
4439.812205
4432.404018
4406.435009
4421.170207
4437.705886
4425.497353
4422.875919
4423.845020
4416.376824
4434.919541
4408.998554
4414.616493
4422.749470
4406.215501
4460.426736
4446.950773
4492.919103
4409.709186
4418.945044
4456.179357
4418.906819
4452.357724
4436.405683
4461.563327
4424.315670
4451.172420
4423.733741
4435.994304
4424.289801
4438.991090
4428.874254
4425.568220
4425.049182
4437.553027
4442.838335
4397.791814
4438.862087
4424.342275
4421.088568
4428.835133
4437.147982
4424.909231
4430.999680
4441.991197
4407.502045
4447.561446
4366.044438
4406.186906
4434.375582
4403.202449
4450.700090
4439.028591
4421.175649
4431.190568
4429.840974
4422.311198
4422.717849
4410.921196
4419.016814
4431.652978
4433.262197
4418.725828
4439.952987
4421.403488
4422.042519
4409.322022
4446.557742
4437.358402
4413.380794
4437.974076
4431.848856
4394.435370
4428.698161
4413.677984
4447.714556
4430.966776
4470.918804
4405.999170
4445.051749
4424.620418
4436.497504
4427.434822
4380.238337
4426.819729
4429.982512
4415.421666
4445.339356
4486.265711
4422.074983
4444.186736
4433.322175
4430.067230
4429.054074
4438.534979
4420.603894
4445.627184
4425.028022
4430.376185
4397.083366
4452.134016
4411.485793
4409.960238
4417.794510
4447.636868
4401.208049
4455.151131
4399.187034
4479.792739
4406.702380
4435.025302
4423.263030
4418.022701
4432.768556
4433.158303
4412.915315
4432.010677
4419.234383
4421.947949
4385.458458
4388.562214
4427.601787
4429.422555
4430.427643
4430.452410
4424.094603
4430.068396
4438.512956
4421.727115
4432.388947
4420.185439
4433.714686
4416.110000
4435.659750
4427.842893
4443.532392
4419.906109
4430.530586
4402.661669
4446.909065
4425.633996
4428.014707
4410.815103
4437.551446
4416.556541
4430.214906
4471.768471
4385.549057
4422.665447
4445.373774
4387.248569
4439.549491
4407.001695
4428.600260
4429.884007
4425.994206
4437.804414
4440.361660
4415.790858
4432.533863
4442.994532
4422.100228
4405.695468
4420.776642
4437.841186
4426.805810
4394.120930
4444.066386
4438.314979
4407.490451
4369.237705
4386.013121
4466.261778
4437.671558
4412.166988
4411.590974
4398.881094
4452.903207
4445.007747
4435.999340
4469.781010
4449.319563
4434.360981
4456.514996
4431.463413
4432.263405
4430.412956
4422.898382
4421.696325
4439.539266
4435.210984
4408.620683
4432.098407
4437.773419
4442.149752
4397.475976
4455.027071
4445.590939
4418.305576
4423.952418
4417.612320
4493.635617
4458.706422
4433.464291
4440.510093
4429.912690
4452.350515
4419.210985
4434.158348
4435.450613
4432.125032
4433.243287
4423.621180
4396.199333
4427.252099
4428.730583
4432.635322
4434.687420
4438.417874
4438.834764
4428.044053
4426.260035
4438.343568
4435.983009
4401.585014
4435.812656
4439.294192
4426.204525
4413.881663
4435.302794
4449.325917
4390.217716
4449.495166
4394.508343
4379.488821
4430.314638
4433.296556
4423.749044
4385.355922
4468.052065
4393.737298
4425.799151
4412.090983
4471.116382
4361.116845
4420.779153
4434.958276
4433.187780
4421.719901
4422.903099
4428.208840
4432.616817
4429.227597
4414.435924
4419.911186
4463.176224
4424.890640
4426.075733
4428.022916
4453.239218
4433.749727
4433.961500
4410.191731
4392.873036
4463.927330
4462.818322
4445.423397
4400.714991
4407.093107
4424.748311
4450.504191
4431.671932
4376.619039
4458.212271
4422.590950
4464.145404
4421.533137
4437.409946
4428.790866
4439.165117
4439.731322
4420.493913
4437.148589
4415.167584
4444.533854
4408.831183
4420.285306
4399.838086
4457.859678
4419.264139
4434.520984
4390.842289
4436.026114
4453.372535
4461.203916
4334.649036
4473.920349
4460.671563
4428.563258
4486.770494
4432.559947
4454.982716
4462.216956
4439.901095
4418.016821
4387.739206
4399.161841
4436.510525
4436.407275
4424.403750
4419.340300
4413.217083
4431.712053
4429.495141
4424.781310
4440.194552
4412.919768
4447.645414
4406.257212
4438.071279
4404.211097
4439.808555
4410.810273
4446.374237
4379.585293
4443.019046
4319.768802
4500.190055
4458.754845
4421.526739
4414.909656
4521.063726
4389.040001
4440.783354
4400.952969
4463.496918
4364.900405
4433.605075
4445.380483
4426.121924
4438.206164
4431.907922
4440.778779
4425.187980
4439.376748
4412.221685
4426.354763
4409.359498
4436.027825
4412.195149
4416.651642
4405.469218
4448.747630
4392.978671
4455.687786
4388.746439
4480.703716
4458.810516
4507.851813
4422.455072
4417.490651
4363.605490
4432.423128
4405.020665
4434.254537
4465.530281
4459.278370
4454.392162
4368.896822
4456.294829
4421.981971
4427.926504
4424.432430
4420.823051
4428.974015
4449.555955
4421.098723
4422.214214
4428.894902
4423.844790
4432.192823
4456.488831
4407.742563
4432.304629
4438.299371
4435.319978
4426.186467
4432.140626
4436.433838
4506.830755
4578.981653
4434.521439
4452.983655
4420.987035
4413.827509
4466.989825
4399.377557
4414.723500
4437.250055
4433.672139
4415.146375
4423.323117
4430.958315
4421.801332
4431.894103
4412.922811
4412.070897
4420.403659
4433.603456
4419.701506
4431.447924
4428.491743
4451.647572
4400.897559
4424.560027
4428.389279
4417.537458
4446.134635
4406.498523
4404.664586
4428.843058
4390.760284
4415.632064
4419.620888
4414.797898
4422.430976
4450.540399
4372.381277
4370.346428
4497.944023
4473.693498
4416.682155
4418.857176
4432.357966
4419.313462
4416.585175
4401.472180
4431.698447
4415.895496
4415.128745
4421.508854
4421.563483
4424.292098
4447.638243
4411.407910
4439.929885
4413.080927
4460.463039
4392.926468
4450.937970
4430.999847
4451.595436
4430.408673
4442.566536
4428.693487
4434.369020
4434.003944
4470.806206
4479.612831
4438.674441
4367.549546
4442.491903
4393.128573
4423.523815
4430.721022
4415.581120
4444.791907
4444.437216
4428.854933
4443.842201
4445.672264
4419.533467
4425.279055
4417.620025
4411.210930
4416.881101
4421.957337
4422.882104
4439.353026
4442.782571
4400.846976
4444.127206
4448.321660
4427.898325
4440.118438
4429.583528
4421.070193
4459.935124
4459.232516
4409.443802
4534.099013
4363.945710
4428.270562
4425.494357
4423.571109
4436.237912
4426.873021
4421.845529
4409.930730
4409.239326
4427.454063
4433.588264
4431.487464
4430.813418
4398.457010
4427.899594
4426.067172
4421.463108
4421.413386
4439.929864
4392.529949
4422.685902
4429.970326
4447.084402
4433.969435
4447.118933
4443.883540
4440.906027
4467.244429
4442.317712
4469.150057
4419.671543
4342.263357
4397.808730
4417.174617
4423.967531
4413.704898
4425.005113
4429.312160
4445.753493
4439.653521
4422.762211
4431.869781
4424.058766
4395.121431
4430.293387
4444.552648
4417.413481
4430.930908
4422.504183
4411.786997
4477.513261
4380.298833
4427.419220
4437.056404
4424.299976
4425.816096
4448.867832
4402.132655
4396.074876
4472.445193
4422.068713
4380.816418
4449.268436
4474.058517
4412.204033
4428.414579
4419.861316
4440.872746
4413.110962
4419.940555
4404.777331
4438.137697
4409.725304
4432.713522
4444.872885
4402.970051
4444.500384
4443.097837
4419.786679
4412.651447
4451.800222
4401.583517
4405.330877
4374.497474
4424.324502
4436.009276
4448.066807
4414.816263
4439.353975
4430.297202
4448.308667
4397.473118
4387.231144
4473.871773
4361.864997
4420.088600
4424.586746
4415.960691
4433.299751
4407.480323
4454.628736
4425.156951
4470.418709
4390.207717
4461.631879
4404.290506
4420.828127
4419.456777
4435.939451
4416.235830
4406.266538
4430.017429
4412.972505
4443.203918
4469.846932
4445.836022
4437.189411
4469.402024
4440.681354
4432.439661
4455.554996
4447.643188
4456.021195
4473.928762
4462.069127
4411.482664
4407.297417
4425.198750
4419.693623
4436.873050
4414.641820
4433.900853
4377.442841
4424.395668
4428.719099
4423.020493
4409.490088
4451.292053
4401.430120
4427.321295
4413.286649
4443.584716
4435.604770
4415.018563
4416.515004
4380.057741
4485.501498
4450.575367
4438.742713
4390.503298
4443.055554
4430.163119
4396.468751
4440.427999
4392.070774
4451.929490
4426.500408
4410.702219
4424.971440
4421.806631
4439.982664
4406.832799
4439.470261
4450.356728
4434.214882
4406.728555
4418.817106
4452.070646
4425.969870
4439.463743
4407.259312
4441.918058
4461.657897
4404.064434
4402.744631
4459.268695
4382.068600
4437.242231
4416.428109
4399.143508
4439.862002
4422.920405
4438.707463
4442.121888
4421.701348
4397.967372
4438.217156
4387.593234
4466.313404
4429.094162
4430.961783
4417.675372
4445.113042
4406.567857
4436.241224
4422.783903
4418.232292
4417.670584
4439.322391
4423.693372
4428.753762
4424.255838
4426.345208
4461.273158
4413.665756
4445.509932
4468.668938
4423.664304
4329.082275
4400.778512
4440.571447
4403.177069
4420.082373
4423.655177
4437.040948
4449.993781
4352.099212
4409.513653
4413.050105
4366.149355
4430.259076
4440.530726
4414.186517
4436.835631
4424.158666
4411.812625
4445.136917
4434.828030
4423.880697
4416.805156
4427.372162
4450.847871
4435.772311
4385.554995
4456.127845
4374.506768
4428.092804
4475.651751
4375.805985
4548.486368
4385.599045
4428.973830
4391.920083
4432.656802
4419.278785
4419.887239
4437.962999
4444.276603
4488.679778
4402.894315
4431.536282
4428.249059
4431.439435
4428.697408
4420.596727
4422.368782
4423.957912
4391.154129
4433.691236
4408.613675
4419.416468
4435.209448
4461.027600
4417.915505
4406.183959
4454.717588
4468.927677
4444.952324
4418.587436
4425.859906
4424.926888
4495.531521
4481.904934
4468.680027
4418.500010
4456.880638
4426.808311
4417.887884
4433.878867
4456.592682
4449.864604
4482.172260
4433.387473
4422.481372
4442.286176
4429.873097
4430.432248
4434.908077
4454.788486
4418.481528
4407.176683
4422.705369
4413.696359
4390.886367
4410.014923
4446.595783
4410.908243
4450.600852
4388.434351
4412.834892
4415.336958
4442.098915
4673.586563
4453.608140
4483.046475
4470.206879
4404.271941
4450.071375
4445.532331
4381.722387
4374.004241
4334.472759
4384.942835
4436.649739
4431.900977
4420.309053
4416.168905
4438.158855
4413.113597
4435.420143
4410.569159
4458.604052
4455.145265
4395.717280
4458.830682
4412.380809
4409.886249
4442.300042
4447.609187
4421.441053
4444.983299
4410.547024
4430.436174
4447.950956
4415.215127
4452.363553
4423.427721
4440.321093
4420.603631
4434.699628
4459.474994
4471.178676
4420.956829
4453.648705
4430.117511
4417.417066
4440.642287
4420.894812
4428.722957
4419.599734
4419.944267
4436.401071
4424.325582
4426.575304
4406.558457
4447.338063
4426.159436
4405.525954
4416.552757
4417.318935
4439.011690
4434.895338
4389.388103
4409.461710
4411.413393
4452.969336
4442.740007
4405.956663
4405.016001
4442.006984
4445.688158
4380.963876
4465.619625
4411.694692
4419.841980
4430.956938
4424.451423
4434.575686
4455.026251
4430.654536
4417.800823
4432.781709
4431.822318
4435.506392
4406.967082
4428.015108
4429.161871
4426.032829
4464.557716
4428.336132
4462.230275
4421.300059
4463.432452
4474.586272
4384.082385
4429.595556
4528.537764
4437.123382
4402.364550
4455.672995
4447.159154
4432.192690
4455.126233
4428.536109
4432.617754
4390.849511
4425.114366
4442.615308
4400.217806
4399.187447
4444.738009
4438.527883
4426.372766
4420.752708
4434.677890
4421.071779
4425.156856
4421.114546
4406.174607
4438.922761
4422.992327
4443.184114
4401.405840
4462.695798