# vtk DataFile Version 2.0
mfree iwf
ASCII

DATASET UNSTRUCTURED_GRID
POINTS 6231 float
0.000000 0.000300 0.000000
0.000000 0.000310 0.000000
0.000000 0.000320 0.000000
0.000000 0.000330 0.000000
0.000000 0.000340 0.000000
0.000000 0.000350 0.000000
0.000000 0.000360 0.000000
0.000001 0.000370 0.000000
0.000001 0.000380 0.000000
0.000001 0.000390 0.000000
0.000001 0.000400 0.000000
0.000001 0.000410 0.000000
0.000001 0.000420 0.000000
0.000001 0.000430 0.000000
0.000001 0.000440 0.000000
0.000001 0.000450 0.000000
0.000002 0.000460 0.000000
0.000002 0.000470 0.000000
0.000002 0.000480 0.000000
0.000001 0.000492 0.000000
0.000006 0.000501 0.000000
0.001091 0.001132 0.000000
0.001165 0.001165 0.000000
0.001108 0.001138 0.000000
0.001178 0.001170 0.000000
0.001200 0.001174 0.000000
0.001249 0.001177 0.000000
0.001257 0.001175 0.000000
0.001269 0.001169 0.000000
0.001282 0.001166 0.000000
0.001311 0.001166 0.000000
0.000010 0.000300 0.000000
0.000010 0.000310 0.000000
0.000010 0.000320 0.000000
0.000010 0.000330 0.000000
0.000010 0.000340 0.000000
0.000010 0.000350 0.000000
0.000010 0.000360 0.000000
0.000011 0.000370 0.000000
0.000011 0.000380 0.000000
0.000011 0.000390 0.000000
0.000011 0.000400 0.000000
0.000011 0.000410 0.000000
0.000011 0.000420 0.000000
0.000011 0.000430 0.000000
0.000011 0.000440 0.000000
0.000011 0.000450 0.000000
0.000012 0.000460 0.000000
0.000011 0.000472 0.000000
0.000013 0.000478 0.000000
0.000009 0.000492 0.000000
0.000013 0.000498 0.000000
0.001219 0.001170 0.000000
0.001234 0.001170 0.000000
0.001242 0.001171 0.000000
0.001248 0.001169 0.000000
0.001264 0.001161 0.000000
0.001275 0.001159 0.000000
0.001289 0.001155 0.000000
0.001300 0.001156 0.000000
0.001305 0.001153 0.000000
0.001308 0.001162 0.000000
0.000020 0.000300 0.000000
0.000020 0.000310 0.000000
0.000020 0.000320 0.000000
0.000020 0.000330 0.000000
0.000021 0.000340 0.000000
0.000020 0.000350 0.000000
0.000021 0.000360 0.000000
0.000020 0.000370 0.000000
0.000020 0.000380 0.000000
0.000021 0.000390 0.000000
0.000020 0.000400 0.000000
0.000022 0.000410 0.000000
0.000020 0.000420 0.000000
0.000022 0.000430 0.000000
0.000020 0.000439 0.000000
0.000023 0.000451 0.000000
0.000021 0.000460 0.000000
0.000022 0.000470 0.000000
0.000021 0.000482 0.000000
0.000024 0.000494 0.000000
0.000020 0.000497 0.000000
0.001185 0.001160 0.000000
0.001215 0.001165 0.000000
0.001225 0.001167 0.000000
0.001230 0.001164 0.000000
0.001239 0.001157 0.000000
0.001254 0.001160 0.000000
0.001280 0.001152 0.000000
0.001295 0.001151 0.000000
0.001302 0.001143 0.000000
0.001309 0.001139 0.000000
0.000030 0.000300 0.000000
0.000030 0.000310 0.000000
0.000030 0.000320 0.000000
0.000031 0.000330 0.000000
0.000030 0.000340 0.000000
0.000031 0.000350 0.000000
0.000030 0.000360 0.000000
0.000030 0.000370 0.000000
0.000031 0.000380 0.000000
0.000031 0.000390 0.000000
0.000031 0.000400 0.000000
0.000031 0.000410 0.000000
0.000031 0.000419 0.000000
0.000032 0.000430 0.000000
0.000031 0.000440 0.000000
0.000031 0.000450 0.000000
0.000031 0.000459 0.000000
0.000036 0.000473 0.000000
0.000029 0.000478 0.000000
0.000032 0.000488 0.000000
0.000032 0.000497 0.000000
0.000063 0.000500 0.000000
0.001206 0.001161 0.000000
0.001223 0.001153 0.000000
0.001248 0.001150 0.000000
0.001258 0.001143 0.000000
0.001264 0.001154 0.000000
0.001268 0.001147 0.000000
0.001279 0.001144 0.000000
0.001285 0.001142 0.000000
0.001308 0.001131 0.000000
0.000040 0.000300 0.000000
0.000040 0.000310 0.000000
0.000040 0.000320 0.000000
0.000040 0.000331 0.000000
0.000040 0.000341 0.000000
0.000041 0.000349 0.000000
0.000040 0.000360 0.000000
0.000041 0.000370 0.000000
0.000040 0.000380 0.000000
0.000041 0.000390 0.000000
0.000041 0.000399 0.000000
0.000041 0.000410 0.000000
0.000041 0.000420 0.000000
0.000040 0.000430 0.000000
0.000042 0.000439 0.000000
0.000043 0.000450 0.000000
0.000042 0.000460 0.000000
0.000037 0.000469 0.000000
0.000045 0.000477 0.000000
0.000043 0.000496 0.000000
0.000040 0.000498 0.000000
0.000985 0.000994 0.000000
0.001213 0.001151 0.000000
0.001232 0.001149 0.000000
0.001236 0.001145 0.000000
0.001249 0.001151 0.000000
0.001268 0.001138 0.000000
0.001289 0.001131 0.000000
0.001287 0.001122 0.000000
0.001298 0.001134 0.000000
0.001305 0.001122 0.000000
0.000050 0.000300 0.000000
0.000050 0.000310 0.000000
0.000050 0.000320 0.000000
0.000050 0.000329 0.000000
0.000051 0.000339 0.000000
0.000050 0.000351 0.000000
0.000050 0.000360 0.000000
0.000050 0.000371 0.000000
0.000051 0.000379 0.000000
0.000051 0.000390 0.000000
0.000052 0.000400 0.000000
0.000049 0.000410 0.000000
0.000053 0.000419 0.000000
0.000051 0.000430 0.000000
0.000053 0.000440 0.000000
0.000047 0.000451 0.000000
0.000054 0.000458 0.000000
0.000052 0.000470 0.000000
0.000055 0.000483 0.000000
0.000048 0.000488 0.000000
0.000050 0.000498 0.000000
0.001205 0.001167 0.000000
0.001159 0.001156 0.000000
0.001225 0.001141 0.000000
0.001234 0.001129 0.000000
0.001254 0.001134 0.000000
0.001271 0.001130 0.000000
0.001262 0.001127 0.000000
0.001280 0.001131 0.000000
0.001295 0.001122 0.000000
0.001301 0.001112 0.000000
0.000060 0.000300 0.000000
0.000060 0.000310 0.000000
0.000060 0.000321 0.000000
0.000060 0.000332 0.000000
0.000061 0.000339 0.000000
0.000059 0.000349 0.000000
0.000061 0.000359 0.000000
0.000060 0.000369 0.000000
0.000062 0.000380 0.000000
0.000059 0.000390 0.000000
0.000063 0.000399 0.000000
0.000060 0.000410 0.000000
0.000064 0.000419 0.000000
0.000058 0.000430 0.000000
0.000065 0.000439 0.000000
0.000061 0.000449 0.000000
0.000065 0.000460 0.000000
0.000055 0.000471 0.000000
0.000064 0.000475 0.000000
0.000068 0.000485 0.000000
0.000058 0.000496 0.000000
0.001194 0.001167 0.000000
0.001203 0.001152 0.000000
0.001219 0.001133 0.000000
0.001240 0.001136 0.000000
0.001250 0.001123 0.000000
0.001251 0.001115 0.000000
0.001280 0.001112 0.000000
0.001272 0.001121 0.000000
0.001290 0.001111 0.000000
0.001297 0.001103 0.000000
0.000070 0.000300 0.000000
0.000070 0.000310 0.000000
0.000070 0.000319 0.000000
0.000070 0.000328 0.000000
0.000071 0.000340 0.000000
0.000070 0.000351 0.000000
0.000073 0.000359 0.000000
0.000068 0.000372 0.000000
0.000082 0.000376 0.000000
0.000069 0.000390 0.000000
0.000073 0.000400 0.000000
0.000068 0.000411 0.000000
0.000074 0.000421 0.000000
0.000068 0.000429 0.000000
0.000076 0.000438 0.000000
0.000066 0.000452 0.000000
0.000078 0.000458 0.000000
0.000072 0.000470 0.000000
0.000076 0.000486 0.000000
0.000068 0.000495 0.000000
0.000076 0.000496 0.000000
0.000976 0.000973 0.000000
0.001193 0.001155 0.000000
0.001214 0.001144 0.000000
0.001232 0.001113 0.000000
0.001249 0.001133 0.000000
0.001262 0.001115 0.000000
0.001272 0.001113 0.000000
0.001266 0.001103 0.000000
0.001286 0.001102 0.000000
0.001294 0.001094 0.000000
0.000080 0.000300 0.000000
0.000080 0.000310 0.000000
0.000081 0.000321 0.000000
0.000079 0.000332 0.000000
0.000082 0.000340 0.000000
0.000080 0.000350 0.000000
0.000082 0.000361 0.000000
0.000074 0.000371 0.000000
0.000076 0.000384 0.000000
0.000080 0.000391 0.000000
0.000089 0.000397 0.000000
0.000079 0.000410 0.000000
0.000086 0.000417 0.000000
0.000078 0.000431 0.000000
0.000086 0.000445 0.000000
0.000076 0.000448 0.000000
0.000084 0.000464 0.000000
0.000074 0.000470 0.000000
0.000088 0.000472 0.000000
0.000085 0.000483 0.000000
0.000084 0.000495 0.000000
0.001184 0.001166 0.000000
0.001155 0.001162 0.000000
0.001217 0.001122 0.000000
0.001228 0.001130 0.000000
0.001241 0.001120 0.000000
0.001245 0.001107 0.000000
0.001256 0.001107 0.000000
0.001275 0.001100 0.000000
0.001282 0.001093 0.000000
0.001289 0.001085 0.000000
0.000090 0.000300 0.000000
0.000090 0.000310 0.000000
0.000090 0.000319 0.000000
0.000090 0.000329 0.000000
0.000090 0.000340 0.000000
0.000089 0.000350 0.000000
0.000092 0.000361 0.000000
0.000088 0.000369 0.000000
0.000092 0.000379 0.000000
0.000089 0.000387 0.000000
0.000084 0.000404 0.000000
0.000093 0.000409 0.000000
0.000086 0.000425 0.000000
0.000096 0.000426 0.000000
0.000090 0.000435 0.000000
0.000097 0.000455 0.000000
0.000087 0.000453 0.000000
0.000098 0.000472 0.000000
0.000106 0.000480 0.000000
0.000089 0.000494 0.000000
0.000094 0.000495 0.000000
0.000994 0.001009 0.000000
0.001187 0.001148 0.000000
0.001176 0.001156 0.000000
0.001206 0.001141 0.000000
0.001222 0.001111 0.000000
0.001250 0.001097 0.000000
0.001262 0.001096 0.000000
0.001270 0.001090 0.000000
0.001278 0.001084 0.000000
0.001285 0.001076 0.000000
0.000100 0.000300 0.000000
0.000100 0.000310 0.000000
0.000100 0.000321 0.000000
0.000100 0.000331 0.000000
0.000101 0.000341 0.000000
0.000099 0.000349 0.000000
0.000101 0.000359 0.000000
0.000100 0.000370 0.000000
0.000101 0.000380 0.000000
0.000100 0.000391 0.000000
0.000101 0.000400 0.000000
0.000103 0.000407 0.000000
0.000101 0.000418 0.000000
0.000100 0.000437 0.000000
0.000108 0.000442 0.000000
0.000096 0.000445 0.000000
0.000107 0.000460 0.000000
0.000096 0.000465 0.000000
0.000094 0.000481 0.000000
0.000106 0.000491 0.000000
0.000101 0.000494 0.000000
0.001114 0.001142 0.000000
0.001123 0.001147 0.000000
0.001149 0.001159 0.000000
0.001229 0.001118 0.000000
0.001238 0.001105 0.000000
0.001239 0.001095 0.000000
0.001260 0.001087 0.000000
0.001250 0.001084 0.000000
0.001273 0.001079 0.000000
0.001280 0.001068 0.000000
0.000110 0.000300 0.000000
0.000110 0.000310 0.000000
0.000110 0.000319 0.000000
0.000110 0.000329 0.000000
0.000110 0.000339 0.000000
0.000111 0.000351 0.000000
0.000109 0.000361 0.000000
0.000112 0.000370 0.000000
0.000110 0.000379 0.000000
0.000110 0.000389 0.000000
0.000112 0.000399 0.000000
0.000111 0.000414 0.000000
0.000116 0.000423 0.000000
0.000105 0.000427 0.000000
0.000114 0.000432 0.000000
0.000107 0.000450 0.000000
0.000116 0.000462 0.000000
0.000110 0.000470 0.000000
0.000116 0.000480 0.000000
0.000111 0.000493 0.000000
0.000119 0.000492 0.000000
0.001059 0.001100 0.000000
0.001004 0.001029 0.000000
0.001181 0.001144 0.000000
0.001201 0.001131 0.000000
0.001190 0.001128 0.000000
[...]
POINT_DATA 6231
SCALARS density float 1
LOOKUP_TABLE default
4414.888525
4428.110097
4423.557891
4422.334571
4422.488317
4422.058746
4426.798424
4428.218034
4428.129958
4429.830377
4429.438969
4433.355571
4428.807839
4429.403618
4431.169205
4440.069037
4423.513707
4432.119167
4413.426383
4424.268828
4411.281922
4430.761104
4422.501550
4444.053940
4436.671347
4419.813702
4399.892594
4426.552732
4449.083493
4450.502585
4416.789807
4419.032417
4425.984970
4424.525024
4428.302025
4431.714168
4429.925012
4423.512784
4426.746362
4427.944482
4429.106593
4423.263372
4425.398380
4423.349130
4438.642717
4417.173341
4427.304855
4410.875158
4441.060410
4463.221383
4459.429006
4416.227735
4410.950691
4415.194862
4438.393669
4503.411059
4398.621807
4402.992250
4425.863590
4398.158811
4450.364220
4437.641018
4419.963607
4428.729897
4427.455389
4426.459568
4420.372120
4427.578702
4428.160126
4434.363546
4420.818771
4432.054271
4428.873949
4441.747344
4423.053229
4436.220954
4416.740706
4473.815855
4401.433846
4455.427940
4351.817146
4451.103609
4421.616495
4424.476124
4443.051005
4422.084261
4498.453526
4345.470793
4360.116735
4411.561548
4426.523964
4425.815540
4405.310524
4428.539454
4431.477037
4425.725898
4431.921399
4434.780122
4431.488333
4425.909503
4432.179993
4424.909951
4439.408294
4411.328734
4429.411273
4417.662043
4445.251933
4406.906242
4428.551560
4389.717604
4452.571894
4372.382905
4550.360715
4373.758305
4435.580112
4453.539818
4414.610404
4453.360373
4338.820681
4486.846797
4456.518032
4421.294183
4476.834099
4427.313640
4429.835310
4427.200313
4430.772886
4434.648874
4427.334342
4433.084606
4430.234893
4434.838437
4424.873704
4429.732456
4421.220766
4450.242736
4410.963408
4445.207520
4414.639191
4451.976612
4388.024520
4512.665424
4310.731750
4418.793956
4384.883164
4430.635646
4419.340324
4445.348607
4456.848589
4493.522229
4428.799383
4406.232916
4473.524926
4443.049674
4412.661978
4430.911474
4432.751474
4434.227330
4433.603103
4427.913020
4437.913237
4421.562750
4436.958147
4422.324696
4437.484071
4415.986060
4439.393387
4401.564897
4447.621040
4374.067483
4477.694998
4363.730786
4471.308237
4363.742335
4538.838841
4381.477383
4436.457330
4426.696537
4444.919559
4458.355791
4469.964179
4450.897380
4385.941341
4406.192054
4429.011696
4419.173171
4431.191975
4437.061049
4418.254505
4439.863465
4437.918324
4440.529554
4413.278452
4444.703117
4398.823259
4448.144758
4425.170513
4439.943055
4421.479104
4446.492141
4406.975946
4468.477582
4397.749565
4514.335944
4378.649762
4467.950790
4433.256631
4413.249826
4387.477050
4386.569423
4375.898340
4453.279135
4435.697369
4406.336649
4419.331902
4423.799244
4430.158880
4431.384075
4428.136374
4432.132490
4438.561992
4395.761530
4447.512004
4427.696866
4428.841149
4409.372855
4449.985731
4387.923256
4436.555026
4409.010691
4434.917680
4440.358861
4458.846314
4430.344084
4454.318751
4453.253275
4414.921110
4389.630420
4434.001750
4470.961767
4456.021247
4413.354264
4430.811558
4421.031795
4453.568838
4433.147314
4446.818304
4412.081707
4430.637094
4426.816114
4419.754890
4420.897257
4433.831068
4442.124717
4416.374718
4438.968857
4426.629208
4445.509473
4414.732994
4434.016605
4417.996560
4439.631732
4451.102349
4401.443222
4459.604286
4447.709490
4371.361864
4463.101566
4411.782241
4427.198710
4413.782877
4425.638681
4439.729444
4381.163751
4451.663975
4443.692262
4401.065037
4438.595478
4434.995823
4424.401356
4435.743837
4437.867835
4412.133568
4432.853934
4415.748134
4435.290721
4445.549604
4426.982416
4421.032973
4447.343045
4412.502913
4428.188941
4459.155333
4411.842605
4395.168890
4427.455760
4413.781284
4436.365514
4424.550857
4412.634633
4428.066438
4414.521404
4436.195128
4466.761399
4408.390097
4384.086896
4436.389142
4439.158942
4434.253335
4413.572192
4430.220387
4428.602421
4420.593864
4441.243080
4429.265335
4426.040463
4441.075309
4407.818950
4444.697135
4422.943026
4440.281713
4439.073179
4416.307713
4403.381994
4452.952470
4456.897713
4431.129025
4459.871866
4428.750699
4428.410872
4415.406717
4423.907162
4429.727809
4426.947080
4452.006770
4451.858501
4409.994712
4409.968501
4469.301647
4446.992783
4425.896703
4431.777264
4435.594073
4435.642763
4429.002958
4428.676573
4420.694817
4431.127089
4435.047789
4427.541007
4425.139224
4408.658918
4442.748245
4408.711487
4440.477378
4420.705761
4416.021602
4475.674155
4401.790914
4459.428878
4407.610644
4412.030442
4438.766176
4438.116826
4406.025104
4392.888268
4394.488548
4445.144300
4442.153986
4413.831603
4423.691548
4452.358789
4433.540452
4429.894546
4423.485700
4427.618119
4425.142141
4441.832661
4412.308774
4440.170404
4401.714369
4446.425808
4437.952010
4417.069224
4431.423165
4458.326462
4413.903984
4403.420932
4416.145131
4381.132581
4434.412357
4435.564058
4392.821907
4436.872750
4418.070210
4426.912479
4455.808034
4450.687585
4415.210238
4353.106297
4459.582919
4388.227278
4419.117344
4439.180318
4429.651240
4429.866426
4446.225360
4415.554052
4434.888126
4423.778496
4430.832602
4434.698133
4411.303872
4413.440190
4418.127482
4450.028981
4415.307235
4394.111208
4472.358473
4410.049153
4468.878485
4487.436956
4417.461865
4438.619461
4434.813977
4419.508317
4422.445955
4423.910911
4437.073776
4446.066162
4459.541662
4464.730977
4488.864899
4454.471209
4431.449576
4434.561412
4433.770521
4412.391418
4438.135758
4421.753128
4434.666585
4423.183408
4428.103764
4415.301674
4434.490894
4432.486899
4454.668370
4429.066635
4431.192632
4357.224766
4411.524660
4484.665883
4570.337348
4391.146122
4380.090509
4426.604196
4419.140469
4436.947012
4451.568418
4411.554278
4457.050310
4427.048836
4404.120605
4407.382850
4446.677884
4428.285013
4436.287415
4432.943124
4420.922981
4448.347818
4398.265293
4437.746777
4422.544302
4405.714017
4424.039629
4449.897244
4433.641841
4416.644448
4416.482378
4445.032161
4436.325406
4522.017910
4344.344430
4326.454499
4458.232057
4392.765619
4428.975745
4429.996878
4452.429393
4479.341937
4444.772171
4444.321839
4433.498670
4392.473528
4422.167082
4412.945999
4433.478601
4430.362671
4428.503866
4427.964818
4422.671809
4445.590099
4422.487078
4417.411383
4436.105727
4445.285565
4449.169564
4419.711606
4458.949351
4394.768790
4436.442052
4434.832237
4402.878156
4486.542411
4469.595078
4422.326529
4406.521424
4425.692898
4428.004836
4460.007212
4368.855890
4461.034002
4468.322175
4423.806594
4403.840680
4432.654224
4429.647122
4434.500182
4425.100912
4432.460868
4446.198837
4424.659472
4435.888686
4394.595279
4438.988558
4443.458766
4408.048816
4421.972461
4426.552529
4418.889620
4453.303492
4422.228128
4431.417123
4398.071558
4468.911164
4381.412642
4394.469428
4419.422033
4426.210587
4424.895886
4436.601110
4397.377002
4474.499146
4440.580458
4395.096720
4462.064116
4424.616807
4438.561744
4426.643468
4432.654449
4424.651026
4427.274581
4424.123103
4423.458776
4442.889463
4414.741615
4420.533650
4429.918463
4430.229262
4453.515058
4437.790175
4433.230317
4406.823195
4453.578691
4390.005249
4434.707101
4422.542149
4437.018128
4387.747908
4423.238858
4432.291785
4424.325309
4454.122705
4420.931550
4471.813469
4469.981548
4413.489702
4424.567895
4420.501555
4422.800158
4429.147750
4427.051879
4420.118931
4444.876458
4404.179195
4455.414596
4407.037119
4443.932077
4425.024505
4409.870411
4413.160671
4434.954381
4415.543042
4413.803754
4449.232561
4375.834525
4465.774629
4426.134914
4552.523200
4377.620069
4468.673347
4416.798641
4396.518695
4445.760733
4377.750176
4466.593167
4398.377043
4414.407433
4422.554254
4422.373703
4429.463845
4428.935597
4431.614096
4421.051833
4421.345742
4444.613910
4402.118940
4430.701879
4395.522157
4432.166568
4459.992279
4427.528397
4432.529306
4437.790706
4442.032580
4430.793564
4471.025031
4472.671734
4390.006156
4384.999758
4438.681986
4416.830070
4432.683092
4463.708051
4443.602715
4404.095820
4427.023543
4453.802367
4462.310198
4423.309650
4409.971956
4434.094389
4425.388691
4427.434226
4441.090292
4412.671689
4446.617213
4408.967465
4425.099846
4425.308234
4415.378513
4413.051704
4415.851487
4458.057607
4426.807212
4395.042732
4469.042522
4426.480928
4400.142255
4396.738513
4459.068554
4415.245778
4449.705083
4417.875757
4426.941881
4432.630899
4387.058977
4376.931022
4454.800678
4357.688080
4423.555553
4442.795057
4428.814814
4433.100704
4426.155656
4432.245900
4426.943093
4400.424874
4439.484511
4426.399980
4414.971227
4444.020301
4399.938068
4445.558218
4458.660390
4415.777714
4391.091577
4455.300032
4418.051754
4416.387246
4453.818180
4451.276484
4429.472844
4423.690778
4418.697978
4458.453824
4406.289231
4427.491883
4477.887234
4337.311793
4488.600540
4389.157388
4420.185896
4423.712385
4431.058731
4429.961836
4413.918738
4439.334386
4438.358821
4423.043749
4418.774776
4405.187477
4438.827563
4423.177587
4442.011160
4393.469794
4437.896334
4429.621797
4419.337600
4412.448856
4448.080531
4399.244119
4433.004839
4425.040963
4408.619076
4433.143633
4422.474871
4436.845061
4456.098176
4427.407072
4406.133566
4450.981945
4437.831433
4442.776470
4425.885297
4426.066652
4432.334325
4437.337331
4404.858326
4423.192160
4410.622498
4439.741415
4441.853175
4426.412234
4434.272647
4430.642330
4440.287334
4454.691697
4384.687412
4451.953751
4400.881807
4456.003652
4435.248594
4472.076004
4411.904958
4421.835309
4458.019572
4414.334602
4435.784758
4455.034393
4431.067823
4458.551164
4420.364304
4421.002017
4433.259460
4433.152058
4438.033303
4410.921126
4439.466265
4434.475666
4437.688524
4438.088184
4418.329498
4411.904377
4445.211120
4436.246133
4442.351114
4440.147420
4431.822128
4430.825695
4435.148195
4403.410475
4448.320961
4363.088703
4427.458755
4431.287204
4415.874338
4461.570962
4438.652579
4421.166811
4390.134082
4447.053992
4438.714359
4446.471964
4410.425841
4418.927833
4423.032166
4439.847691
4420.593570
4428.755407
4405.313992
4434.015589
4402.138695
4455.746521
4433.204161
4440.184253
4404.037363
4463.844450
4400.128885
4407.229085
4394.228759
4448.621178
4432.765349
4461.872711
4419.473966
4434.008831
4427.351374
4433.074631
4423.090378
4401.982100
4422.200508
4449.018362
4424.328321
4411.889574
4472.119642
4408.466335
4442.083031
4426.358175
4431.319544
4426.589542
4439.639253
4429.291547
4442.764168
4425.480756
4427.875832
4395.602107
4450.756896
4403.588815
4414.793869
4425.073101
4450.297254
4421.922272
4453.718987
4405.775673
4455.060361
4421.607939
4437.226930
4412.605144
4424.804435
4426.137340
4429.868460
4415.987052
4418.371051
4423.824650
4443.965201
4422.496395
4401.391230
4431.424021
4431.536177
4426.830764
4421.891496
4424.764538
4424.042229
4420.628822
4432.021815
4428.879161
4431.389637
4424.208171
4432.722356
4444.595195
4424.087524
4440.253848
4392.734730
4443.487426
4401.774408
4454.848716
4426.683767
4432.647345
4409.150759
4431.021052
4415.866369
4429.051074
4470.895408
4400.711403
4405.440447
4447.141012
4411.241504
4437.166840
4407.301497
4425.445615
4423.641042
4440.378696
4431.551351
4442.272082
4426.690212
4428.939603
4423.467926
4443.838047
4421.648967
4415.141040
4437.495269
4439.927828
4403.501412
4426.244133
4429.211390
4419.440189
4375.186534
4374.490230
4459.523290
4428.823940
4406.935100
4422.949394
4406.918810
4451.390802
4421.551925
4405.489607
4464.295407
4421.835836
4424.785178
4446.147672
4432.018767
4430.651160
4425.387224
4413.861112
4427.917421
4409.899754
4444.739380
4432.386979
4405.427476
4441.976892
4467.438727
4405.324745
4436.389150
4442.485359
4439.252725
4399.233640
4420.178096
4493.532647
4466.674040
4427.806337
4435.896996
4434.276177
4434.511621
4418.442614
4420.625580
4416.686381
4438.170997
4412.508762
4432.290275
4416.678999
4436.038239
4431.532987
4432.834499
4430.698380
4447.089547
4428.105663
4447.809464
4413.317686
4430.922204
4454.512440
4410.805494
4407.711497
4447.020517
4450.742678
4402.375035
4432.316040
4457.016771
4387.786886
4451.429958
4403.349753
4387.063687
4430.535879
4434.416707
4427.045911
4389.915331
4473.797944
4399.095221
4413.521017
4421.144526
4473.741604
4356.097628
4412.979809
4433.053534
4435.118558
4423.443248
4429.373663
4407.680504
4447.688152
4411.415670
4419.118165
4403.055098
4466.064204
4450.616632
4410.899412
4411.371246
4467.072479
4440.982241
4433.795958
4394.411258
4390.775594
4465.811020
4457.639834
4442.368153
4403.963461
4405.200432
4430.591348
4441.325385
4442.916794
4370.724765
4476.815195
4432.652048
4456.409218
4416.824440
4435.850991
4437.113831
4427.291097
4436.181110
4445.122270
4420.852840
4414.683660
4417.959072
4442.459363
4409.150772
4404.412919
4457.051548
4433.202152
4416.632351
4390.858743
4442.136677
4460.372291
4450.086128
4332.009491
4473.065948
4463.431593
4433.433797
4471.065358
4422.786651
4441.323882
4457.754093
4441.934617
4427.152621
4404.208272
4410.545649
4437.096344
4431.912686
4433.437970
4424.159027
4422.688417
4413.756424
4436.426635
4445.323189
4418.162589
4417.261717
4455.990980
4412.894890
4432.026501
4404.947204
4442.904211
4407.614584
4447.833130
4370.246314
4449.043600
4317.710883
4499.379087
4437.819652
4418.313576
4429.395934
4487.914976
4426.095442
4437.959815
4398.944810
4473.560755
4354.850694
4433.013947
4447.900504
4434.366790
4435.021689
4427.943128
4439.880410
4426.429964
4431.900959
4426.524681
4440.859351
4407.958473
4422.628578
4421.450864
4438.065002
4408.326256
4465.478190
4373.639823
4462.031778
4391.290058
4479.482700
4471.969264
4506.717598
4413.422915
4419.467175
4382.029767
4436.610403
4408.689662
4439.787011
4451.374633
4445.609734
4444.532467
4349.811496
4454.354658
4428.575930
4424.489834
4431.904495
4426.052327
4402.424158
4424.861666
4405.442017
4421.123853
4436.770691
4443.164814
4428.208788
4449.044305
4408.745939
4424.915111
4441.070016
4435.044339
4434.371466
4426.531172
4431.682676
4505.303406
4447.710384
4429.363553
4439.206637
4422.906969
4390.311951
4458.564551
4420.549180
4439.766412
4438.410308
4444.007155
4410.713807
4426.467932
4424.337895
4444.582130
4430.851102
4451.740787
4434.727514
4449.027431
4442.319087
4387.127999
4400.317247
4447.346582
4458.464753
4418.142293
4393.565351
4411.315183
4413.266605
4461.746494
4402.903807
4390.559066
4431.341398
4392.071210
4418.999398
4424.740610
4436.233264
4408.256856
4444.857646
4382.979923
4393.452959
4479.798909
4467.841427
4407.435161
4431.631841
4434.892870
4407.499910
4432.652781
4442.812424
4418.986295
4399.619567
4426.859321
4444.749456
4413.922623
4459.524978
4417.895216
4444.570239
4431.903629
4449.014846
4472.597541
4378.211819
4439.113426
4435.988166
4444.900651
4430.239678
4439.025414
4423.360842
4449.234974
4440.424146
4463.619093
4468.828429
4442.436998
4386.004679
4420.075178
4400.625615
4431.895699
4422.678703
4444.018050
4444.376301
4401.635121
4449.101348
4440.975564
4451.114580
4410.634127
4424.410111
4438.378087
4417.360183
4411.886743
4421.327340
4421.249862
4407.022382
4429.843604
4418.109031
4438.761513
4440.977488
4431.220882
4428.050302
4430.888457
4420.118227
4431.051005
4440.986135
4415.547973
4491.608148
4400.328157
4453.771451
4428.442638
4430.333045
4426.329567
4416.467665
4420.311329
4435.212837
4421.770726
4399.693683
4431.165633
4432.067967
4456.621343
4388.394195
4469.840930
4412.778217
4444.890105
4419.814058
4447.895402
4412.610916
4389.806895
4430.004898
4453.467654
4432.487502
4406.551289
4462.312193
4424.696607
4422.067362
4436.967668
4430.317458
4440.065359
4352.989990
4392.607290
4404.539444
4417.247933
4432.978239
4435.620751
4406.734733
4448.246093
4407.406859
4422.560235
4449.809906
4407.724325
4401.553941
4399.132685
4444.914397
4418.581218
4409.736916
4424.976153
4454.586100
4472.134651
4372.004634
4445.313843
4433.138221
4429.384742
4421.876674
4436.788153
4423.844167
4441.780266
4464.638920
4441.773401
4369.604622
4446.995037
4470.301265
4414.530814
4425.670867
4431.245976
4418.082844
4451.206780
4405.777668
4433.692587
4456.218492
4456.480041
4441.077992
4437.205330
4407.004217
4428.537755
4459.552382
4415.909093
4449.035664
4414.454457
4401.063040
4419.231230
4365.768895
4421.797352
4439.312504
4434.443806
4423.438645
4440.691452
4406.291502
4417.579536
4399.615589
4376.063919
4450.886610
4404.054663
4429.902250
4431.993760
4432.421079
4411.578610
4450.770024
4405.644529
4423.494367
4400.002776
4436.740167
4437.164208
4395.685542
4424.146980
4441.077701
4412.100631
4395.686208
4437.349812
4440.299240
4402.924672
4467.730293
4463.425462
4444.095206
4435.547043
4431.089932
4440.316568
4413.448316
4452.352004
4422.387026
4454.691054
4472.434240
4463.366902
4432.209561
4404.234347
4419.781010
4438.396825
4426.290168
4405.807403
4437.944777
4435.328852
4427.484287
4444.621466
4426.458026
4435.239488
4456.278290
4409.208318
4440.371748
4443.770733
4423.767887
4404.281489
4411.368330
4429.064474
4395.214277
4464.868902
4439.839062
4434.947481
4407.394975
4453.363764
4417.557925
4455.789471
4384.629129
4417.152878
4347.992681
4398.783361
4407.612110
4433.769199
4416.281669
4441.154055
4430.667281
4423.313915
4427.551831
4416.239497
4406.990129
4417.942736
4429.258964
4441.516602
4436.008842
4398.442137
4435.399965
4453.459107
4416.741585
4419.530062
4475.350086
4381.098489
4436.238250
4413.122641
4405.332671
4436.863364
4424.096478
4440.197423
4461.156831
4440.134995
4398.353211
4405.929030
4464.560690
4449.340870
4433.748642
4423.032679
4426.243895
4438.128397
4419.588354
4419.888186
4457.733508
4440.821143
4425.974374
4436.543011
4438.767759
4425.774637
4432.756315
4433.027052
4451.042630
4433.231329
4408.988485
4446.923831
4444.148186
4326.695980
4397.888411
4426.640870
4420.657528
4436.722697
4458.199222
4480.513411
4420.953595
4448.881779
4439.791525
4402.899842
4369.713403
4424.213483
4440.083627
4428.680592
4416.821953
4440.605536
4432.219241
4403.174565
4418.144127
4428.581275
4415.855747
4426.381455
4426.661782
4420.594782
4396.230634
4446.746691
4385.274480
4429.045680
4472.435051
4396.744732
4536.790705
4391.642751
4428.022829
4415.747768
4424.695834
4448.234884
4437.128972
4427.489334
4442.339123
4492.649363
4447.367420
4423.597949
4429.769038
4432.713281
4419.903219
4427.936629
4423.862302
4435.670139
4450.519346
4431.771524
4438.649874
4435.571277
4420.279053
4421.333630
4399.460508
4449.798241
4437.563536
4449.248428
4424.750843
4416.298633
4430.597950
4425.045312
4474.202747
4446.792047
4462.696872
4423.294152
4464.072663
4478.230720
4405.549611
4427.299805
4482.117790
4432.033126
4472.688500
4434.031605
4428.328334
4431.947913
4436.066930
4407.200388
4433.437383
4391.513421
4450.146323
4425.680472
4413.518779
4439.408959
4420.574259
4429.733875
4437.256394
4394.491989
4450.169209
4405.946045
4416.616696
4422.563972
4448.225500
4446.255699
4438.649813
4457.035584
4468.830939
4447.431777
4434.510011
4382.681625
4386.821507
4377.173139
4348.609401
4400.378133
4430.874295
4432.951837
4418.361538
4418.911842
4438.583130
4443.223930
4419.684317
4432.162799
4437.193726
4453.241060
4415.848255
4447.280975
4423.457776
4426.903931
4456.545867
4418.343582
4406.884671
4448.027500
4401.982951
4431.541679
4451.389383
4414.606053
4436.602939
4430.271205
4463.137568
4448.179853
4367.021064
4458.049003
4459.101936
4399.628978
4448.474035
4429.538449
4426.919553
4437.235249
4421.579280
4425.406659
4410.736205
4421.013171
4433.709228
4483.376479
4421.713154
4417.261758
4434.825218
4423.974752
4443.207829
4401.149196
4441.634044
4426.140200
4443.292776
4392.946600
4410.543153
4418.982530
4432.959313
4381.215348
4438.054381
4375.288333
4413.210738
4444.849678
4466.552565
4473.050362
4393.085927
4423.324657
4432.491165
4422.097771
4421.145420
4433.579404
4453.383260
4449.989596
4414.930326
4415.746665
4394.471018
4421.440775
4401.081810
4451.654308
4436.919881
4420.955313
4447.595194
4432.603038
4423.552863
4461.612149
4473.865889
4379.190839
4429.745985
4420.603958
4435.445275
4415.497904
4389.722495
4444.309342
4388.955666
4460.361833
4427.753162
4416.878821
4408.025296
4425.214933
4433.708089
4429.804905
4426.410389
4419.729447
4421.420675
4423.719363
4440.414089
4417.070096
4421.318503
4428.827499
4445.721403
4400.318081
4441.065457
4415.075603
4400.675224
4445.240673
4457.197535