# vtk DataFile Version 2.0
mfree iwf
ASCII

DATASET UNSTRUCTURED_GRID
POINTS 6231 float
0.000000 0.000300 0.000000
0.000000 0.000310 0.000000
0.000000 0.000320 0.000000
0.000000 0.000330 0.000000
0.000000 0.000340 0.000000
0.000000 0.000350 0.000000
0.000000 0.000360 0.000000
0.000001 0.000370 0.000000
0.000001 0.000380 0.000000
0.000001 0.000390 0.000000
0.000001 0.000400 0.000000
0.000001 0.000410 0.000000
0.000001 0.000420 0.000000
0.000001 0.000430 0.000000
0.000001 0.000440 0.000000
0.000001 0.000450 0.000000
0.000002 0.000460 0.000000
0.000002 0.000470 0.000000
0.000002 0.000480 0.000000
0.000001 0.000492 0.000000
0.000006 0.000501 0.000000
0.001022 0.001086 0.000000
0.001096 0.001119 0.000000
0.001039 0.001092 0.000000
0.001109 0.001124 0.000000
0.001131 0.001128 0.000000
0.001180 0.001131 0.000000
0.001188 0.001129 0.000000
0.001200 0.001124 0.000000
0.001213 0.001121 0.000000
0.001242 0.001121 0.000000
0.000010 0.000300 0.000000
0.000010 0.000310 0.000000
0.000010 0.000320 0.000000
0.000010 0.000330 0.000000
0.000010 0.000340 0.000000
0.000010 0.000350 0.000000
0.000010 0.000360 0.000000
0.000011 0.000370 0.000000
0.000011 0.000380 0.000000
0.000011 0.000390 0.000000
0.000011 0.000400 0.000000
0.000011 0.000410 0.000000
0.000011 0.000420 0.000000
0.000011 0.000430 0.000000
0.000011 0.000440 0.000000
0.000011 0.000450 0.000000
0.000012 0.000460 0.000000
0.000011 0.000472 0.000000
0.000013 0.000478 0.000000
0.000009 0.000492 0.000000
0.000013 0.000498 0.000000
0.001150 0.001124 0.000000
0.001165 0.001125 0.000000
0.001173 0.001126 0.000000
0.001179 0.001123 0.000000
0.001194 0.001116 0.000000
0.001206 0.001114 0.000000
0.001220 0.001110 0.000000
0.001231 0.001111 0.000000
0.001237 0.001108 0.000000
0.001239 0.001117 0.000000
0.000020 0.000300 0.000000
0.000020 0.000310 0.000000
0.000020 0.000320 0.000000
0.000020 0.000330 0.000000
0.000021 0.000340 0.000000
0.000020 0.000350 0.000000
0.000021 0.000360 0.000000
0.000021 0.000370 0.000000
0.000020 0.000380 0.000000
0.000021 0.000390 0.000000
0.000020 0.000400 0.000000
0.000022 0.000410 0.000000
0.000020 0.000420 0.000000
0.000022 0.000430 0.000000
0.000020 0.000440 0.000000
0.000023 0.000451 0.000000
0.000020 0.000460 0.000000
0.000022 0.000470 0.000000
0.000021 0.000482 0.000000
0.000024 0.000494 0.000000
0.000020 0.000497 0.000000
0.001116 0.001114 0.000000
0.001146 0.001120 0.000000
0.001156 0.001121 0.000000
0.001161 0.001119 0.000000
0.001170 0.001112 0.000000
0.001185 0.001114 0.000000
0.001211 0.001107 0.000000
0.001226 0.001106 0.000000
0.001233 0.001098 0.000000
0.001240 0.001094 0.000000
0.000030 0.000300 0.000000
0.000030 0.000310 0.000000
0.000030 0.000320 0.000000
0.000031 0.000330 0.000000
0.000030 0.000340 0.000000
0.000031 0.000350 0.000000
0.000030 0.000360 0.000000
0.000031 0.000370 0.000000
0.000030 0.000380 0.000000
0.000031 0.000390 0.000000
0.000031 0.000400 0.000000
0.000031 0.000410 0.000000
0.000031 0.000420 0.000000
0.000031 0.000430 0.000000
0.000031 0.000440 0.000000
0.000030 0.000450 0.000000
0.000031 0.000459 0.000000
0.000036 0.000473 0.000000
0.000029 0.000478 0.000000
0.000032 0.000488 0.000000
0.000032 0.000497 0.000000
0.000063 0.000500 0.000000
0.001137 0.001115 0.000000
0.001154 0.001106 0.000000
0.001180 0.001104 0.000000
0.001188 0.001097 0.000000
0.001196 0.001109 0.000000
0.001198 0.001102 0.000000
0.001210 0.001098 0.000000
0.001217 0.001097 0.000000
0.001239 0.001086 0.000000
0.000040 0.000300 0.000000
0.000040 0.000310 0.000000
0.000040 0.000320 0.000000
0.000040 0.000330 0.000000
0.000040 0.000340 0.000000
0.000040 0.000350 0.000000
0.000041 0.000359 0.000000
0.000040 0.000370 0.000000
0.000041 0.000380 0.000000
0.000040 0.000390 0.000000
0.000042 0.000399 0.000000
0.000041 0.000410 0.000000
0.000042 0.000420 0.000000
0.000040 0.000430 0.000000
0.000042 0.000439 0.000000
0.000043 0.000450 0.000000
0.000042 0.000460 0.000000
0.000037 0.000469 0.000000
0.000045 0.000477 0.000000
0.000043 0.000496 0.000000
0.000040 0.000498 0.000000
0.000917 0.000947 0.000000
0.001144 0.001106 0.000000
0.001163 0.001104 0.000000
0.001169 0.001099 0.000000
0.001180 0.001106 0.000000
0.001200 0.001093 0.000000
0.001220 0.001087 0.000000
0.001218 0.001077 0.000000
0.001229 0.001089 0.000000
0.001236 0.001077 0.000000
0.000050 0.000300 0.000000
0.000050 0.000310 0.000000
0.000050 0.000320 0.000000
0.000049 0.000330 0.000000
0.000051 0.000339 0.000000
0.000050 0.000350 0.000000
0.000051 0.000361 0.000000
0.000050 0.000371 0.000000
0.000052 0.000380 0.000000
0.000050 0.000390 0.000000
0.000052 0.000400 0.000000
0.000049 0.000410 0.000000
0.000053 0.000419 0.000000
0.000051 0.000430 0.000000
0.000053 0.000440 0.000000
0.000047 0.000451 0.000000
0.000054 0.000458 0.000000
0.000052 0.000469 0.000000
0.000055 0.000483 0.000000
0.000048 0.000488 0.000000
0.000050 0.000498 0.000000
0.001135 0.001122 0.000000
0.001090 0.001110 0.000000
0.001156 0.001097 0.000000
0.001168 0.001084 0.000000
0.001187 0.001088 0.000000
0.001202 0.001085 0.000000
0.001192 0.001080 0.000000
0.001211 0.001085 0.000000
0.001226 0.001077 0.000000
0.001232 0.001067 0.000000
0.000060 0.000300 0.000000
0.000060 0.000310 0.000000
0.000060 0.000321 0.000000
0.000060 0.000330 0.000000
0.000061 0.000340 0.000000
0.000059 0.000350 0.000000
0.000061 0.000359 0.000000
0.000060 0.000368 0.000000
0.000062 0.000380 0.000000
0.000059 0.000391 0.000000
0.000063 0.000399 0.000000
0.000060 0.000409 0.000000
0.000063 0.000419 0.000000
0.000058 0.000430 0.000000
0.000065 0.000440 0.000000
0.000060 0.000449 0.000000
0.000065 0.000460 0.000000
0.000055 0.000471 0.000000
0.000064 0.000475 0.000000
0.000068 0.000485 0.000000
0.000058 0.000496 0.000000
0.001125 0.001121 0.000000
0.001135 0.001106 0.000000
0.001151 0.001088 0.000000
0.001169 0.001091 0.000000
0.001181 0.001079 0.000000
0.001183 0.001070 0.000000
0.001211 0.001068 0.000000
0.001203 0.001076 0.000000
0.001221 0.001066 0.000000
0.001229 0.001058 0.000000
0.000070 0.000300 0.000000
0.000070 0.000310 0.000000
0.000070 0.000319 0.000000
0.000071 0.000329 0.000000
0.000071 0.000340 0.000000
0.000070 0.000350 0.000000
0.000072 0.000359 0.000000
0.000068 0.000373 0.000000
0.000081 0.000376 0.000000
0.000070 0.000390 0.000000
0.000073 0.000400 0.000000
0.000068 0.000411 0.000000
0.000074 0.000421 0.000000
0.000068 0.000429 0.000000
0.000075 0.000438 0.000000
0.000066 0.000452 0.000000
0.000077 0.000458 0.000000
0.000073 0.000470 0.000000
0.000076 0.000486 0.000000
0.000068 0.000495 0.000000
0.000076 0.000496 0.000000
0.000908 0.000926 0.000000
0.001124 0.001109 0.000000
0.001145 0.001097 0.000000
0.001163 0.001068 0.000000
0.001179 0.001089 0.000000
0.001194 0.001070 0.000000
0.001204 0.001067 0.000000
0.001197 0.001059 0.000000
0.001217 0.001057 0.000000
0.001225 0.001049 0.000000
0.000080 0.000300 0.000000
0.000080 0.000310 0.000000
0.000081 0.000321 0.000000
0.000079 0.000331 0.000000
0.000081 0.000340 0.000000
0.000080 0.000351 0.000000
0.000082 0.000361 0.000000
0.000074 0.000370 0.000000
0.000075 0.000383 0.000000
0.000080 0.000391 0.000000
0.000089 0.000397 0.000000
0.000079 0.000410 0.000000
0.000086 0.000417 0.000000
0.000079 0.000431 0.000000
0.000086 0.000445 0.000000
0.000077 0.000448 0.000000
0.000085 0.000464 0.000000
0.000074 0.000470 0.000000
0.000087 0.000473 0.000000
0.000085 0.000482 0.000000
0.000083 0.000495 0.000000
0.001115 0.001120 0.000000
0.001086 0.001116 0.000000
0.001147 0.001076 0.000000
0.001158 0.001084 0.000000
0.001171 0.001074 0.000000
0.001177 0.001062 0.000000
0.001187 0.001061 0.000000
0.001207 0.001055 0.000000
0.001214 0.001048 0.000000
0.001221 0.001039 0.000000
0.000090 0.000300 0.000000
0.000090 0.000310 0.000000
0.000090 0.000319 0.000000
0.000090 0.000329 0.000000
0.000091 0.000341 0.000000
0.000089 0.000349 0.000000
0.000092 0.000361 0.000000
0.000089 0.000369 0.000000
0.000092 0.000379 0.000000
0.000089 0.000388 0.000000
0.000084 0.000404 0.000000
0.000093 0.000410 0.000000
0.000086 0.000425 0.000000
0.000096 0.000426 0.000000
0.000089 0.000435 0.000000
0.000098 0.000455 0.000000
0.000087 0.000453 0.000000
0.000099 0.000472 0.000000
0.000106 0.000480 0.000000
0.000089 0.000495 0.000000
0.000094 0.000495 0.000000
0.000926 0.000962 0.000000
0.001118 0.001103 0.000000
0.001107 0.001110 0.000000
0.001137 0.001096 0.000000
0.001155 0.001064 0.000000
0.001181 0.001052 0.000000
0.001194 0.001050 0.000000
0.001201 0.001045 0.000000
0.001210 0.001039 0.000000
0.001216 0.001031 0.000000
0.000100 0.000300 0.000000
0.000100 0.000310 0.000000
0.000100 0.000321 0.000000
0.000100 0.000331 0.000000
0.000102 0.000339 0.000000
0.000099 0.000350 0.000000
0.000101 0.000360 0.000000
0.000100 0.000371 0.000000
0.000101 0.000381 0.000000
0.000100 0.000391 0.000000
0.000100 0.000400 0.000000
0.000103 0.000406 0.000000
0.000101 0.000418 0.000000
0.000100 0.000436 0.000000
0.000108 0.000442 0.000000
0.000096 0.000445 0.000000
0.000107 0.000460 0.000000
0.000096 0.000465 0.000000
0.000094 0.000481 0.000000
0.000106 0.000491 0.000000
0.000101 0.000494 0.000000
0.001045 0.001096 0.000000
0.001054 0.001101 0.000000
0.001080 0.001113 0.000000
0.001160 0.001074 0.000000
0.001170 0.001059 0.000000
0.001170 0.001049 0.000000
0.001191 0.001042 0.000000
0.001182 0.001039 0.000000
0.001204 0.001034 0.000000
0.001211 0.001022 0.000000
0.000110 0.000300 0.000000
0.000110 0.000310 0.000000
0.000110 0.000319 0.000000
0.000110 0.000329 0.000000
0.000110 0.000341 0.000000
0.000112 0.000351 0.000000
0.000109 0.000359 0.000000
0.000113 0.000370 0.000000
0.000110 0.000378 0.000000
0.000110 0.000389 0.000000
0.000112 0.000400 0.000000
0.000110 0.000414 0.000000
0.000116 0.000422 0.000000
0.000105 0.000427 0.000000
0.000113 0.000432 0.000000
0.000107 0.000450 0.000000
0.000116 0.000462 0.000000
0.000110 0.000470 0.000000
0.000116 0.000480 0.000000
0.000111 0.000493 0.000000
0.000119 0.000492 0.000000
0.000990 0.001053 0.000000
0.000936 0.000982 0.000000
0.001112 0.001098 0.000000
0.001132 0.001085 0.000000
0.001121 0.001082 0.000000
[...]
POINT_DATA 6231
SCALARS density float 1
LOOKUP_TABLE default
4415.202950
4427.023942
4423.367094
4423.712023
4424.258880
4423.302902
4425.372203
4426.793408
4428.640549
4430.185464
4429.687442
4433.623414
4428.134601
4429.857996
4431.822682
4439.948768
4423.254143
4431.824502
4413.748151
4424.076783
4411.162016
4421.899074
4423.627112
4432.463994
4437.877377
4421.181680
4396.772107
4428.543183
4447.588119
4450.752429
4416.533954
4417.407642
4424.684596
4426.256249
4428.442394
4428.353996
4428.752890
4426.921644
4428.352007
4428.197578
4428.707391
4422.523877
4427.207236
4422.777044
4439.382430
4417.489394
4428.174530
4410.912117
4442.377869
4462.699902
4459.823074
4416.297631
4406.656726
4416.695540
4436.251741
4513.953613
4394.670994
4406.673626
4422.393465
4400.067778
4450.548176
4437.971423
4420.107983
4431.909165
4426.166524
4423.833732
4425.617504
4427.117171
4426.648564
4432.118749
4420.328431
4434.604887
4427.754517
4441.531000
4423.074591
4437.060296
4412.899159
4474.985532
4400.540867
4454.694947
4351.267545
4450.863751
4421.550522
4427.431104
4438.835260
4417.921708
4505.494865
4323.880264
4362.485505
4413.731853
4426.478419
4426.550892
4402.331505
4428.435286
4429.497494
4424.715426
4434.925004
4433.917175
4432.765577
4424.049712
4436.790691
4424.703323
4437.448259
4411.675706
4430.369718
4414.502029
4446.997454
4408.238548
4431.038425
4388.837535
4451.116235
4374.880214
4549.888979
4373.640578
4435.591986
4470.235692
4434.265521
4469.566207
4349.754572
4485.183566
4448.160475
4419.755662
4476.237421
4430.727737
4432.941283
4428.436649
4433.329703
4437.082470
4419.649820
4439.165246
4430.800233
4432.285262
4422.852192
4432.629439
4418.935888
4450.855634
4411.941609
4443.949548
4412.233224
4446.963051
4389.138235
4511.889051
4310.346698
4418.775736
4385.035283
4429.987856
4400.390493
4436.523342
4446.125360
4498.404929
4434.595975
4401.086909
4485.856049
4445.489944
4415.470154
4429.222779
4431.538299
4427.768783
4432.168506
4437.061351
4435.563733
4419.631169
4440.462394
4422.032645
4438.503674
4417.380557
4437.336889
4401.824762
4449.725244
4375.948847
4482.019498
4360.871744
4472.035728
4363.772444
4538.149218
4380.778406
4437.728045
4429.934845
4453.238047
4450.122646
4454.649127
4439.251025
4403.920643
4412.662749
4417.294529
4420.838375
4427.142105
4442.060273
4422.447349
4436.777853
4433.384157
4437.486950
4416.700957
4441.245499
4402.192209
4441.482502
4428.950757
4440.603994
4424.372342
4443.904064
4409.828160
4464.588115
4404.402744
4514.984619
4375.522580
4471.086140
4433.038996
4412.831116
4392.148630
4404.418969
4413.480676
4453.106314
4425.270337
4419.862601
4408.091597
4413.112421
4434.260793
4432.589948
4430.364871
4422.264026
4438.423324
4401.869611
4445.863155
4424.611378
4421.755777
4408.857298
4452.660489
4384.489674
4434.425660
4410.249738
4433.705744
4440.837195
4458.178670
4434.412284
4450.335118
4456.011166
4414.469191
4385.869588
4435.400517
4463.312686
4442.673680
4408.548804
4392.925868
4425.438091
4451.134022
4437.692520
4439.360060
4413.773827
4430.683457
4426.160483
4427.121542
4425.438737
4424.159480
4435.930265
4417.460341
4446.401504
4427.010669
4440.902773
4419.934779
4436.295354
4423.278396
4438.355621
4451.688661
4399.065485
4458.745535
4449.688695
4363.883348
4468.855091
4408.611344
4428.906271
4414.710567
4434.438233
4430.257769
4392.811679
4451.723629
4438.521265
4401.518262
4438.020974
4436.886571
4424.879210
4432.779492
4435.219585
4407.159779
4437.254737
4425.057133
4430.727393
4446.317078
4431.416140
4422.694549
4447.435415
4402.152180
4425.740729
4455.132713
4414.019540
4387.355919
4429.783282
4404.978118
4440.581318
4423.276092
4413.372256
4427.375496
4415.526207
4437.306088
4479.563717
4399.340642
4382.372412
4435.654227
4439.878015
4432.009217
4412.306150
4428.268327
4429.859853
4420.849810
4444.648090
4432.564633
4417.332713
4442.311406
4402.776434
4448.970645
4419.004530
4436.558228
4446.529957
4425.064792
4398.878551
4451.465920
4459.655022
4426.379318
4469.223583
4425.392697
4429.264708
4416.133438
4425.362840
4434.892885
4427.019174
4454.579667
4463.626007
4386.395777
4409.373938
4471.598387
4452.887564
4423.960925
4427.982687
4436.208480
4433.971181
4421.686295
4424.656127
4423.476408
4439.441597
4431.731086
4430.427496
4425.137951
4411.711830
4433.394953
4410.929285
4446.469895
4417.544849
4421.760962
4477.808480
4408.350485
4455.725406
4401.891818
4410.203885
4438.038448
4437.867902
4408.745851
4385.422109
4395.527547
4450.728062
4455.321888
4407.825166
4424.218334
4453.593155
4432.903503
4428.356271
4425.622017
4432.287054
4432.015324
4432.264528
4408.026586
4441.483805
4395.951961
4449.507096
4439.097445
4416.334358
4451.731382
4459.775015
4412.154055
4402.232015
4421.230376
4380.165574
4435.005734
4437.609578
4391.132595
4441.213141
4415.231239
4428.554714
4453.079671
4441.287237
4416.652902
4347.887901
4460.041392
4387.641794
4418.376331
4438.861664
4430.447943
4430.107671
4437.855886
4413.743689
4440.889620
4429.963859
4426.405190
4450.872494
4409.737486
4411.422189
4403.820201
4435.246440
4423.663981
4393.254206
4466.763715
4409.800249
4466.818487
4486.507076
4417.894696
4439.094434
4435.734701
4418.543800
4423.433230
4423.878241
4436.875544
4459.614271
4460.999689
4465.043684
4496.792275
4454.586617
4432.563978
4433.772990
4431.856016
4421.944813
4439.849767
4418.796857
4429.172305
4410.453937
4416.335110
4413.228874
4450.578481
4420.553108
4456.279805
4412.581512
4436.916385
4357.156738
4415.313014
4486.752358
4571.600748
4390.661712
4381.075149
4426.708620
4420.035139
4449.261981
4455.176258
4408.176235
4438.989795
4427.242881
4403.211709
4404.577056
4448.474380
4426.395171
4435.334058
4434.674687
4414.975464
4438.847130
4402.483427
4436.252644
4432.071542
4436.362399
4404.273478
4453.461608
4416.486138
4436.526490
4420.043831
4448.712538
4442.996360
4523.990049
4343.619951
4323.937108
4463.591176
4391.982556
4415.177581
4431.189052
4436.213474
4480.022541
4446.386096
4442.846746
4435.447007
4398.551595
4423.304967
4412.507768
4432.836820
4426.895516
4432.067182
4423.461462
4437.801581
4430.359925
4426.008613
4382.799722
4425.404681
4447.627266
4446.248973
4433.532760
4456.265635
4400.664890
4435.265021
4413.781479
4411.632102
4486.853324
4474.482687
4420.923744
4404.886541
4428.386158
4451.098135
4404.451246
4369.985756
4461.772535
4465.407973
4420.555697
4405.575059
4432.197264
4429.520055
4437.026318
4417.286291
4441.019971
4434.888569
4429.766660
4413.840758
4419.927445
4444.675090
4440.343309
4414.161600
4435.803908
4423.957377
4403.183240
4443.932139
4414.427511
4435.664435
4398.829187
4469.445961
4375.665873
4392.394848
4418.348949
4421.456303
4439.826156
4439.963933
4398.402362
4468.932380
4442.462623
4398.009484
4467.908596
4428.486602
4439.447911
4430.463150
4425.964398
4438.554360
4416.024841
4435.821065
4440.465549
4415.713895
4395.597865
4433.853587
4431.919056
4428.759814
4452.012708
4449.350711
4419.025748
4419.648133
4443.355122
4391.486899
4431.829909
4425.655407
4435.880810
4385.875232
4423.277508
4434.234465
4436.166356
4443.795218
4415.889854
4477.707479
4480.299455
4413.300157
4420.799177
4420.140120
4427.696637
4428.008995
4425.009657
4421.707852
4439.509630
4405.474203
4447.384410
4439.717388
4427.014101
4413.812421
4418.945999
4410.050223
4439.260236
4420.967275
4417.053697
4450.461722
4378.520597
4471.030061
4425.554119
4553.953853
4376.717996
4464.926731
4420.180592
4436.465933
4447.884265
4381.140103
4464.090444
4389.569043
4411.798604
4412.774025
4421.293300
4430.690942
4434.601849
4427.781882
4433.955572
4418.546242
4453.017561
4403.683713
4409.337504
4387.406287
4447.308807
4451.868125
4439.030387
4425.077709
4436.439452
4437.261136
4435.739009
4469.284857
4478.718792
4387.825896
4385.696999
4435.198015
4416.284409
4430.797704
4461.763524
4438.180451
4406.353544
4432.529736
4451.785552
4457.886407
4424.741038
4410.347884
4431.971916
4429.002712
4422.750561
4438.880518
4412.715644
4450.503775
4407.995433
4429.146579
4443.089041
4413.344053
4422.325281
4416.383087
4456.834245
4428.521054
4390.072526
4466.267027
4422.865069
4406.864892
4393.036864
4461.558860
4415.301601
4449.680193
4419.665201
4429.102422
4430.719830
4389.387793
4372.948568
4451.225555
4355.286457
4425.998981
4444.681682
4426.837821
4436.176609
4431.136932
4435.070365
4428.178055
4401.908134
4442.707438
4413.990730
4407.411054
4447.394034
4405.747637
4431.914429
4455.956763
4421.198743
4392.813153
4452.327239
4416.083701
4412.155223
4448.854858
4449.735874
4428.854236
4424.473279
4419.740785
4458.458550
4412.160285
4434.937349
4477.021340
4342.102806
4486.554482
4387.466536
4418.735834
4430.426805
4428.574979
4428.061190
4411.923253
4443.316456
4440.186352
4428.406927
4418.604784
4405.573196
4440.221717
4412.920608
4440.693771
4398.469412
4431.851120
4427.743267
4427.478957
4413.036431
4449.848149
4402.052380
4432.574023
4423.219920
4412.880471
4441.862294
4418.894155
4444.282899
4466.296849
4422.530508
4399.167279
4447.256130
4438.993414
4444.142222
4428.302549
4422.830561
4438.985453
4444.254635
4406.446197
4423.862580
4408.742845
4447.514893
4435.933985
4419.258862
4438.717970
4427.776267
4441.240443
4449.706840
4389.174553
4453.547148
4404.286403
4453.100302
4436.878042
4471.462862
4414.509170
4422.232016
4457.045563
4423.459242
4432.933991
4453.593879
4428.169711
4463.071426
4424.531305
4420.203037
4434.227587
4434.827397
4442.580050
4409.570260
4436.446864
4433.222102
4435.553645
4440.642451
4414.410601
4413.831911
4437.736616
4443.215701
4447.146797
4435.131025
4425.276735
4437.921993
4437.043356
4399.840452
4451.432695
4363.161494
4426.856917
4430.761784
4414.727815
4455.489300
4433.472809
4436.225800
4392.620904
4446.575626
4422.596151
4446.986111
4409.659983
4420.625952
4423.190334
4439.414305
4416.379902
4436.456424
4417.660812
4423.976401
4415.709127
4447.502672
4431.456637
4441.832418
4397.778843
4463.710881
4394.402617
4407.945671
4399.404766
4445.964863
4430.544380
4461.899194
4420.467195
4434.710675
4428.140378
4433.947710
4422.533408
4391.594829
4420.608884
4442.640185
4419.975792
4408.992550
4471.360868
4409.042804
4443.313172
4423.039123
4432.014227
4435.898305
4436.162394
4415.060980
4455.626169
4418.405073
4428.259905
4401.113373
4447.108469
4404.795252
4412.337242
4424.432483
4444.788282
4425.730780
4456.071333
4403.624789
4462.026838
4419.699992
4438.265051
4413.727716
4423.380726
4430.142262
4428.233651
4414.703212
4422.235668
4417.391655
4448.491552
4414.495893
4403.472974
4432.378552
4435.275414
4430.111449
4411.326273
4434.081287
4429.319679
4422.742944
4421.086145
4441.255147
4417.473784
4423.519541
4432.753810
4447.500020
4431.219603
4439.100871
4395.392779
4447.070811
4398.915466
4454.381723
4425.605054
4431.835757
4409.313144
4431.798957
4415.724707
4432.515913
4474.559749
4398.490308
4413.929362
4443.811819
4410.382146
4435.428919
4405.460105
4427.962741
4424.959110
4439.625711
4440.494472
4427.076165
4424.230533
4436.278015
4420.683092
4436.139403
4431.712443
4409.500390
4440.129732
4423.938467
4418.813589
4420.299858
4431.271534
4414.220831
4374.385884
4388.527538
4463.107367
4429.893466
4411.480673
4420.194831
4410.976901
4452.570668
4433.543184
4405.435652
4465.048247
4421.991297
4421.700079
4447.264183
4433.045893
4425.109915
4430.900492
4403.759907
4442.682775
4424.037726
4431.500900
4435.657162
4408.258818
4438.397640
4457.809841
4411.237363
4438.661340
4447.301363
4427.384207
4403.710671
4418.209747
4488.655857
4456.688126
4431.664509
4437.251418
4435.180284
4440.086189
4417.962307
4424.424070
4417.186205
4437.348345
4418.218258
4434.697636
4413.286739
4435.376195
4431.022269
4431.797413
4435.997042
4441.444546
4435.655594
4428.126087
4420.447619
4443.590848
4444.125131
4416.275365
4412.452071
4434.533956
4448.820155
4403.840160
4436.312783
4458.988128
4387.470612
4448.357629
4400.272192
4395.808537
4429.134546
4435.147682
4427.219821
4390.223204
4469.378503
4394.480246
4428.126983
4415.997542
4468.215022
4353.049706
4413.631460
4431.781190
4433.405249
4418.938480
4428.102079
4409.880908
4455.033403
4437.472558
4402.656403
4409.214898
4449.079200
4445.472709
4416.773718
4409.950321
4460.967298
4441.682825
4435.511926
4391.427170
4389.568356
4464.389144
4453.575336
4440.505152
4406.414009
4403.779674
4427.692234
4442.820667
4443.046030
4376.068698
4466.347102
4431.239652
4463.989759
4416.914804
4432.917295
4437.892893
4429.107306
4437.946049
4441.702509
4410.813223
4405.938256
4455.929869
4433.092713
4410.330306
4405.554147
4451.133639
4434.591218
4415.180678
4400.625471
4434.215636
4466.446861
4446.647411
4332.330948
4468.238935
4463.022085
4435.778416
4474.733032
4425.159967
4442.512294
4459.443779
4437.006104
4412.967577
4403.140904
4403.639500
4439.130087
4431.595336
4433.544939
4417.180191
4417.546929
4421.255817
4448.487193
4431.356258
4413.553815
4401.877553
4465.382092
4418.003309
4423.984116
4416.724032
4445.681735
4404.046185
4450.404910
4373.603186
4449.607397
4316.432160
4499.383185
4437.029422
4417.641930
4427.724434
4485.749832
4424.407602
4443.503492
4398.409585
4477.913440
4360.856618
4435.345550
4449.654939
4429.342347
4433.663179
4429.084382
4444.702904
4418.255906
4421.259320
4424.822487
4448.348780
4436.467739
4394.453179
4422.840035
4443.473879
4401.741390
4463.062524
4380.070890
4464.859386
4387.234836
4479.012093
4472.237233
4504.999739
4413.333131
4414.983459
4381.804271
4438.317601
4404.628137
4434.284298
4452.116469
4446.570663
4447.463442
4354.018850
4454.414830
4424.885284
4436.712693
4416.865311
4426.213276
4412.153571
4429.996997
4430.052965
4398.668700
4424.696656
4457.785513
4430.001525
4441.722503
4416.860048
4416.905135
4457.133487
4429.820761
4438.640605
4431.042855
4433.399573
4508.740661
4449.264094
4432.684744
4440.424368
4421.187962
4388.905263
4457.376763
4410.804083
4436.909420
4442.834949
4439.809220
4410.585831
4426.777081
4429.301176
4432.135705
4438.789219
4434.768106
4446.897253
4441.216758
4448.598376
4393.097855
4403.912724
4448.989477
4459.509200
4413.074355
4390.079137
4408.525881
4406.945210
4452.115491
4398.748042
4390.630552
4427.249379
4392.581375
4416.166876
4422.270681
4435.625514
4403.458804
4448.558350
4379.460619
4397.539761
4479.195790
4472.123460
4408.632140
4429.031603
4430.459051
4417.758141
4423.707671
4425.819577
4415.474805
4394.772064
4436.196874
4432.487757
4425.825386
4458.743040
4425.161862
4440.001329
4445.389619
4439.299779
4467.696849
4382.242067
4446.120792
4440.607322
4446.431922
4430.232055
4435.134118
4423.706438
4452.374884
4444.216040
4472.964710
4466.673706
4439.796822
4380.067189
4414.176503
4400.082689
4431.187607
4424.932165
4441.863397
4434.859653
4404.971674
4428.567418
4448.400357
4452.986456
4430.801094
4412.465117
4448.702858
4404.911339
4406.778997
4423.725739
4426.141981
4434.140120
4447.674810
4423.812457
4450.314386
4434.986091
4429.268723
4428.462896
4434.756869
4420.384118
4425.985414
4449.503762
4409.134621
4491.221046
4396.650936
4450.532959
4428.156337
4429.003978
4431.143089
4412.979757
4440.799523
4430.109629
4416.565250
4418.559796
4428.363626
4437.213020
4444.111989
4404.598384
4463.660316
4423.980871
4430.266709
4398.084928
4438.259299
4402.395217
4400.428658
4412.064527
4455.058127
4436.470360
4421.832663
4462.858087
4429.787913
4428.543954
4436.937304
4432.331816
4445.297230
4347.302338
4388.718202
4402.354266
4417.160383
4431.805760
4433.480666
4407.866695
4447.904790
4414.455587
4407.167536
4435.615726
4421.030060
4392.866587
4409.881997
4435.793815
4415.005059
4405.750080
4435.176715
4406.565627
4458.787660
4390.048070
4430.605752
4434.309333
4422.649894
4421.716685
4428.657634
4405.149084
4446.199727
4468.617551
4444.347296
4356.880171
4454.079582
4474.243218
4413.875687
4427.365112
4428.787529
4426.312441
4454.947048
4404.791467
4438.799666
4454.255782
4443.921417
4452.166054
4413.387680
4417.186174
4438.460027
4463.260517
4432.500074
4429.513958
4429.932185
4398.056754
4444.984006
4363.600316
4424.692705
4433.797855
4433.723282
4425.123191
4447.778840
4413.006125
4408.199781
4407.307587
4375.623775
4450.389823
4395.814262
4431.914443
4434.390469
4431.305588
4413.444388
4441.870449
4414.624742
4413.534946
4406.897470
4445.946096
4450.207307
4400.789614
4397.773636
4424.493340
4423.430169
4398.697811
4401.379599
4459.575553
4381.780877
4457.966817
4457.759438
4448.178731
4434.205510
4430.418776
4434.312741
4422.846155
4461.318453
4420.847324
4462.560126
4463.628301
4466.888176
4434.059356
4400.256714
4420.745807
4441.359014
4430.131602
4410.794219
4435.291367
4445.131934
4419.082455
4446.862679
4416.547157
4432.801315
4454.343823
4436.583672
4413.762160
4411.292809
4451.813573
4419.044874
4440.151207
4432.090747
4386.676208
4473.801886
4446.486664
4435.251211
4401.832621
4431.907193
4405.783011
4455.869190
4397.566265
4418.495861
4329.912423
4405.975197
4401.689678
4437.159034
4420.332240
4433.288256
4439.320328
4409.627841
4435.490460
4414.334697
4425.053229
4422.896583
4425.513372
4430.291180
4430.678880
4419.420214
4449.444491
4464.694604
4419.097264
4394.859636
4473.247703
4385.131020
4437.736472
4414.467064
4401.765259
4443.182911
4401.718373
4429.388091
4462.539509
4441.904952
4396.654825
4410.694555
4465.794908
4449.920138
4433.016653
4423.607506
4426.498928
4438.256368
4430.210797
4417.479870
4452.372094
4436.313183
4431.420164
4435.164905
4440.244539
4416.171301
4430.235242
4436.494519
4453.966440
4401.689688
4432.469919
4464.610939
4429.841139
4333.576295
4405.868638
4426.922518
4422.367658
4434.707515
4451.976867
4475.399390
4403.293696
4446.278279
4458.566069
4395.663785
4360.555925
4421.253010
4438.648065
4434.405403
4403.370457
4440.540019
4429.066551
4416.590311
4424.706289
4420.243204
4417.122723
4421.551731
4431.188825
4442.728005
4389.166352
4448.404871
4385.984010
4420.497847
4454.169990
4386.308412
4525.700709
4392.445190
4430.443817
4412.572588
4440.462144
4441.181478
4450.150853
4445.204448
4415.533807
4496.477094
4451.331708
4417.433490
4431.516646
4428.866816
4421.340908
4431.182088
4431.533324
4430.594049
4446.005125
4426.351140
4432.257028
4418.958863
4395.301852
4425.924115
4404.491834
4456.617845
4442.467052
4449.987584
4439.096384
4417.885785
4423.145225
4428.743229
4482.380546
4436.977390
4458.856442
4424.613849
4455.273993
4471.088829
4440.089115
4434.700998
4459.745567
4435.510897
4486.521061
4435.124717
4425.619777
4431.975746
4435.380650
4404.830465
4438.437204
4399.525557
4448.832362
4412.567686
4423.258737
4448.946112
4407.748380
4431.513723
4433.971676
4399.521318
4448.409404
4401.492518
4422.312994
4418.255333
4443.614940
4436.291033
4434.901720
4462.910347
4474.809984
4453.625492
4430.380549
4375.416867
4391.125277
4369.992781
4343.211028
4392.066004
4429.127392
4431.268952
4423.325998
4415.483028
4443.128833
4446.007589
4423.260514
4434.043612
4437.372931
4452.328092
4426.236533
4457.684059
4433.704975
4423.386271
4459.256171
4395.017187
4393.724279
4453.240855
4415.621475
4428.813847
4444.102705
4417.985909
4431.972502
4428.894757
4472.195200
4429.105738
4356.096107
4453.945446
4490.767939
4394.967933
4447.384565
4430.683847
4421.141548
4433.210715
4424.332204
4427.513674
4404.144702
4415.533590
4426.070473
4476.291032
4420.445586
4428.704529
4430.657226
4424.151985
4434.326700
4416.476438
4441.167422
4438.938837
4446.545707
4381.586315
4412.833931
4415.988403
4432.771539
4385.700087
4439.845198
4370.029908
4392.148725
4455.520021
4467.479626
4475.147941
4389.943249
4422.737236
4430.521993
4419.490642
4424.706722
4429.089353
4457.052154
4449.660205
4413.726008
4413.529570
4397.973015
4429.583252
4395.310078
4445.159403
4432.704942
4430.247733
4455.676966
4410.447328
4430.332822
4463.727102
4475.964908
4380.150276
4423.610627
4415.305667
4433.590863
4423.712151
4387.098285
4440.381962
4409.620912
4454.363107
4467.130374
4417.383482
4404.268723
4419.314526
4440.891364
4424.481067
4418.799648
4431.615808
4412.376863
4423.848466
4446.458586
4408.332205
4426.627463
4429.709012
4434.308827
4408.710744
4439.460895
4421.033742
4402.096518
4443.639714
4456.214022