# vtk DataFile Version 2.0
mfree iwf
ASCII

DATASET UNSTRUCTURED_GRID
POINTS 6231 float
0.000000 0.000300 0.000000
0.000000 0.000310 0.000000
0.000000 0.000320 0.000000
0.000000 0.000330 0.000000
0.000000 0.000340 0.000000
0.000000 0.000350 0.000000
0.000000 0.000360 0.000000
0.000001 0.000370 0.000000
0.000001 0.000380 0.000000
0.000001 0.000390 0.000000
0.000001 0.000400 0.000000
0.000001 0.000410 0.000000
0.000001 0.000420 0.000000
0.000001 0.000430 0.000000
0.000001 0.000440 0.000000
0.000002 0.000450 0.000000
0.000002 0.000460 0.000000
0.000002 0.000471 0.000000
0.000002 0.000480 0.000000
0.000002 0.000492 0.000000
0.000006 0.000501 0.000000
0.000657 0.000877 0.000000
0.000722 0.000925 0.000000
0.000672 0.000887 0.000000
0.000734 0.000932 0.000000
0.000755 0.000941 0.000000
0.000803 0.000953 0.000000
0.000811 0.000953 0.000000
0.000823 0.000950 0.000000
0.000836 0.000949 0.000000
0.000868 0.000954 0.000000
0.000010 0.000300 0.000000
0.000010 0.000310 0.000000
0.000010 0.000320 0.000000
0.000010 0.000330 0.000000
0.000010 0.000340 0.000000
0.000010 0.000350 0.000000
0.000010 0.000360 0.000000
0.000011 0.000370 0.000000
0.000011 0.000380 0.000000
0.000011 0.000390 0.000000
0.000011 0.000400 0.000000
0.000011 0.000410 0.000000
0.000011 0.000420 0.000000
0.000011 0.000430 0.000000
0.000011 0.000440 0.000000
0.000011 0.000450 0.000000
0.000012 0.000460 0.000000
0.000012 0.000472 0.000000
0.000013 0.000478 0.000000
0.000009 0.000492 0.000000
0.000013 0.000498 0.000000
0.000774 0.000941 0.000000
0.000789 0.000944 0.000000
0.000796 0.000946 0.000000
0.000803 0.000945 0.000000
0.000820 0.000941 0.000000
0.000831 0.000942 0.000000
0.000846 0.000940 0.000000
0.000857 0.000943 0.000000
0.000863 0.000942 0.000000
0.000865 0.000950 0.000000
0.000020 0.000300 0.000000
0.000020 0.000310 0.000000
0.000020 0.000320 0.000000
0.000020 0.000330 0.000000
0.000021 0.000340 0.000000
0.000020 0.000350 0.000000
0.000021 0.000360 0.000000
0.000021 0.000370 0.000000
0.000020 0.000380 0.000000
0.000021 0.000390 0.000000
0.000021 0.000400 0.000000
0.000022 0.000410 0.000000
0.000020 0.000420 0.000000
0.000022 0.000430 0.000000
0.000020 0.000439 0.000000
0.000024 0.000451 0.000000
0.000020 0.000460 0.000000
0.000022 0.000470 0.000000
0.000021 0.000481 0.000000
0.000024 0.000494 0.000000
0.000020 0.000497 0.000000
0.000744 0.000925 0.000000
0.000771 0.000936 0.000000
0.000781 0.000939 0.000000
0.000786 0.000937 0.000000
0.000797 0.000932 0.000000
0.000811 0.000938 0.000000
0.000838 0.000936 0.000000
0.000853 0.000938 0.000000
0.000861 0.000930 0.000000
0.000869 0.000929 0.000000
0.000030 0.000300 0.000000
0.000030 0.000310 0.000000
0.000030 0.000320 0.000000
0.000031 0.000330 0.000000
0.000030 0.000340 0.000000
0.000030 0.000349 0.000000
0.000030 0.000360 0.000000
0.000030 0.000370 0.000000
0.000031 0.000380 0.000000
0.000031 0.000390 0.000000
0.000031 0.000400 0.000000
0.000031 0.000411 0.000000
0.000031 0.000420 0.000000
0.000031 0.000430 0.000000
0.000032 0.000440 0.000000
0.000030 0.000450 0.000000
0.000032 0.000459 0.000000
0.000036 0.000473 0.000000
0.000029 0.000478 0.000000
0.000033 0.000488 0.000000
0.000032 0.000497 0.000000
0.000063 0.000500 0.000000
0.000764 0.000930 0.000000
0.000781 0.000923 0.000000
0.000808 0.000929 0.000000
0.000818 0.000923 0.000000
0.000822 0.000934 0.000000
0.000828 0.000928 0.000000
0.000839 0.000927 0.000000
0.000846 0.000927 0.000000
0.000869 0.000921 0.000000
0.000040 0.000300 0.000000
0.000040 0.000310 0.000000
0.000040 0.000320 0.000000
0.000040 0.000329 0.000000
0.000040 0.000340 0.000000
0.000041 0.000351 0.000000
0.000041 0.000360 0.000000
0.000040 0.000370 0.000000
0.000041 0.000380 0.000000
0.000040 0.000390 0.000000
0.000042 0.000399 0.000000
0.000040 0.000410 0.000000
0.000042 0.000420 0.000000
0.000040 0.000431 0.000000
0.000042 0.000439 0.000000
0.000043 0.000450 0.000000
0.000043 0.000460 0.000000
0.000036 0.000469 0.000000
0.000045 0.000477 0.000000
0.000043 0.000496 0.000000
0.000040 0.000498 0.000000
0.000584 0.000718 0.000000
0.000773 0.000922 0.000000
0.000792 0.000923 0.000000
0.000799 0.000919 0.000000
0.000806 0.000927 0.000000
0.000828 0.000919 0.000000
0.000851 0.000917 0.000000
0.000850 0.000907 0.000000
0.000859 0.000921 0.000000
0.000868 0.000912 0.000000
0.000050 0.000300 0.000000
0.000050 0.000310 0.000000
0.000050 0.000320 0.000000
0.000049 0.000331 0.000000
0.000052 0.000340 0.000000
0.000049 0.000348 0.000000
0.000051 0.000360 0.000000
0.000050 0.000371 0.000000
0.000052 0.000379 0.000000
0.000050 0.000390 0.000000
0.000052 0.000400 0.000000
0.000049 0.000411 0.000000
0.000053 0.000420 0.000000
0.000051 0.000430 0.000000
0.000053 0.000440 0.000000
0.000047 0.000450 0.000000
0.000054 0.000458 0.000000
0.000053 0.000469 0.000000
0.000056 0.000482 0.000000
0.000048 0.000488 0.000000
0.000050 0.000498 0.000000
0.000760 0.000935 0.000000
0.000719 0.000915 0.000000
0.000787 0.000918 0.000000
0.000804 0.000908 0.000000
0.000817 0.000913 0.000000
0.000833 0.000913 0.000000
0.000825 0.000906 0.000000
0.000842 0.000915 0.000000
0.000858 0.000909 0.000000
0.000866 0.000900 0.000000
0.000060 0.000300 0.000000
0.000060 0.000310 0.000000
0.000060 0.000321 0.000000
0.000060 0.000329 0.000000
0.000060 0.000340 0.000000
0.000059 0.000352 0.000000
0.000063 0.000360 0.000000
0.000059 0.000368 0.000000
0.000062 0.000381 0.000000
0.000060 0.000390 0.000000
0.000063 0.000400 0.000000
0.000060 0.000409 0.000000
0.000063 0.000418 0.000000
0.000058 0.000431 0.000000
0.000065 0.000439 0.000000
0.000061 0.000450 0.000000
0.000065 0.000460 0.000000
0.000055 0.000472 0.000000
0.000064 0.000475 0.000000
0.000068 0.000486 0.000000
0.000058 0.000496 0.000000
0.000750 0.000933 0.000000
0.000764 0.000920 0.000000
0.000782 0.000906 0.000000
0.000795 0.000908 0.000000
0.000811 0.000901 0.000000
0.000819 0.000895 0.000000
0.000847 0.000897 0.000000
0.000837 0.000903 0.000000
0.000856 0.000898 0.000000
0.000865 0.000891 0.000000
0.000070 0.000300 0.000000
0.000070 0.000310 0.000000
0.000070 0.000320 0.000000
0.000070 0.000331 0.000000
0.000071 0.000340 0.000000
0.000071 0.000349 0.000000
0.000071 0.000358 0.000000
0.000067 0.000373 0.000000
0.000076 0.000376 0.000000
0.000069 0.000389 0.000000
0.000073 0.000400 0.000000
0.000069 0.000412 0.000000
0.000074 0.000421 0.000000
0.000069 0.000430 0.000000
0.000074 0.000439 0.000000
0.000066 0.000451 0.000000
0.000077 0.000459 0.000000
0.000073 0.000470 0.000000
0.000076 0.000485 0.000000
0.000068 0.000495 0.000000
0.000076 0.000496 0.000000
0.000580 0.000693 0.000000
0.000753 0.000920 0.000000
0.000775 0.000911 0.000000
0.000796 0.000891 0.000000
0.000812 0.000910 0.000000
0.000828 0.000895 0.000000
0.000837 0.000896 0.000000
0.000835 0.000884 0.000000
0.000853 0.000888 0.000000
0.000863 0.000881 0.000000
0.000080 0.000300 0.000000
0.000080 0.000310 0.000000
0.000080 0.000320 0.000000
0.000080 0.000330 0.000000
0.000080 0.000340 0.000000
0.000082 0.000352 0.000000
0.000079 0.000363 0.000000
0.000079 0.000370 0.000000
0.000079 0.000383 0.000000
0.000079 0.000392 0.000000
0.000087 0.000396 0.000000
0.000079 0.000408 0.000000
0.000084 0.000417 0.000000
0.000079 0.000429 0.000000
0.000087 0.000444 0.000000
0.000077 0.000447 0.000000
0.000086 0.000463 0.000000
0.000074 0.000470 0.000000
0.000087 0.000473 0.000000
0.000085 0.000482 0.000000
0.000084 0.000495 0.000000
0.000741 0.000929 0.000000
0.000713 0.000920 0.000000
0.000781 0.000893 0.000000
0.000792 0.000903 0.000000
0.000806 0.000893 0.000000
0.000813 0.000884 0.000000
0.000823 0.000886 0.000000
0.000844 0.000884 0.000000
0.000852 0.000878 0.000000
0.000861 0.000872 0.000000
0.000090 0.000300 0.000000
0.000090 0.000310 0.000000
0.000089 0.000320 0.000000
0.000090 0.000329 0.000000
0.000091 0.000340 0.000000
0.000090 0.000349 0.000000
0.000090 0.000359 0.000000
0.000092 0.000368 0.000000
0.000091 0.000379 0.000000
0.000092 0.000388 0.000000
0.000086 0.000406 0.000000
0.000094 0.000409 0.000000
0.000089 0.000425 0.000000
0.000096 0.000425 0.000000
0.000088 0.000436 0.000000
0.000097 0.000455 0.000000
0.000086 0.000454 0.000000
0.000097 0.000471 0.000000
0.000106 0.000480 0.000000
0.000089 0.000494 0.000000
0.000094 0.000495 0.000000
0.000589 0.000735 0.000000
0.000747 0.000914 0.000000
0.000735 0.000918 0.000000
0.000766 0.000911 0.000000
0.000794 0.000881 0.000000
0.000819 0.000876 0.000000
0.000832 0.000878 0.000000
0.000839 0.000872 0.000000
0.000849 0.000869 0.000000
0.000858 0.000862 0.000000
0.000100 0.000300 0.000000
0.000100 0.000310 0.000000
0.000101 0.000319 0.000000
0.000099 0.000331 0.000000
0.000101 0.000341 0.000000
0.000100 0.000351 0.000000
0.000101 0.000361 0.000000
0.000099 0.000372 0.000000
0.000101 0.000380 0.000000
0.000100 0.000391 0.000000
0.000100 0.000400 0.000000
0.000104 0.000407 0.000000
0.000100 0.000418 0.000000
0.000100 0.000436 0.000000
0.000110 0.000443 0.000000
0.000097 0.000445 0.000000
0.000108 0.000460 0.000000
0.000098 0.000467 0.000000
0.000095 0.000481 0.000000
0.000106 0.000491 0.000000
0.000101 0.000494 0.000000
0.000677 0.000892 0.000000
0.000685 0.000898 0.000000
0.000708 0.000916 0.000000
0.000792 0.000891 0.000000
0.000807 0.000882 0.000000
0.000809 0.000872 0.000000
0.000831 0.000868 0.000000
0.000822 0.000863 0.000000
0.000845 0.000862 0.000000
0.000855 0.000853 0.000000
0.000110 0.000300 0.000000
0.000110 0.000310 0.000000
0.000109 0.000321 0.000000
0.000111 0.000329 0.000000
0.000110 0.000339 0.000000
0.000111 0.000350 0.000000
0.000109 0.000359 0.000000
0.000112 0.000368 0.000000
0.000111 0.000378 0.000000
0.000111 0.000390 0.000000
0.000112 0.000399 0.000000
0.000110 0.000414 0.000000
0.000116 0.000422 0.000000
0.000107 0.000427 0.000000
0.000111 0.000433 0.000000
0.000106 0.000449 0.000000
0.000115 0.000461 0.000000
0.000111 0.000470 0.000000
0.000116 0.000480 0.000000
0.000111 0.000493 0.000000
0.000119 0.000492 0.000000
0.000631 0.000838 0.000000
0.000594 0.000757 0.000000
0.000742 0.000909 0.000000
0.000765 0.000899 0.000000
0.000755 0.000895 0.000000
[...]
POINT_DATA 6231
SCALARS density float 1
LOOKUP_TABLE default
4413.698075
4425.402783
4422.292212
4425.612313
4427.248895
4426.008234
4423.968679
4423.801418
4428.447022
4429.698951
4426.086581
4430.094590
4427.569813
4429.181828
4431.988000
4442.524172
4424.055055
4431.432416
4412.562373
4424.307163
4411.405403
4423.731673
4428.411427
4433.005933
4442.071932
4420.429265
4398.423301
4430.658246
4450.435850
4453.256108
4418.238207
4415.520514
4421.014103
4429.007086
4426.690242
4419.043516
4425.989420
4430.187750
4432.172393
4428.789330
4430.425143
4426.040452
4436.234153
4426.818116
4440.637050
4415.344338
4423.837268
4408.887044
4447.141611
4461.118500
4459.687767
4416.196132
4408.876915
4414.300877
4434.484031
4504.374815
4393.408517
4400.469424
4425.843838
4404.937824
4457.552952
4444.434014
4419.618607
4431.736096
4427.697668
4420.051848
4437.060448
4429.990499
4418.934396
4432.202538
4416.822857
4432.355382
4428.463795
4429.878552
4415.067838
4438.712404
4413.033556
4484.075243
4400.017626
4450.877907
4352.880461
4449.878598
4420.897712
4420.985751
4426.711386
4413.147403
4508.101053
4328.421552
4367.720105
4416.308275
4419.147581
4420.617097
4399.668483
4426.641631
4428.831560
4420.491283
4433.891004
4433.975234
4425.456299
4430.023064
4435.424811
4428.069503
4439.173980
4409.293855
4444.247344
4422.882112
4447.294759
4400.103850
4433.657927
4387.037441
4457.442973
4368.908815
4553.998533
4371.019388
4429.776595
4456.601421
4433.837531
4484.865674
4341.813359
4486.814084
4467.083391
4406.444302
4482.063549
4440.904832
4432.730005
4429.126154
4433.873250
4442.660775
4413.296211
4442.116473
4433.577572
4425.555726
4420.780977
4435.099836
4415.707246
4446.753418
4401.789516
4442.688098
4422.541820
4444.705855
4392.861350
4508.973082
4310.974229
4419.614838
4383.860098
4442.125790
4421.119301
4429.233996
4422.652678
4479.862885
4429.408713
4405.460350
4490.117214
4438.951405
4414.797552
4428.853923
4427.233859
4423.311361
4424.751254
4439.685913
4443.695605
4408.380747
4444.716443
4426.957718
4428.442045
4431.000099
4430.872716
4427.944879
4450.681408
4374.333790
4481.674824
4366.316874
4470.021829
4358.896720
4536.544967
4382.301931
4445.290997
4427.207744
4448.355026
4409.289086
4441.569010
4442.686402
4388.327082
4399.780592
4414.712804
4416.548944
4427.949946
4436.000778
4435.823023
4438.103232
4424.353567
4423.155325
4440.914893
4441.491001
4400.125493
4442.861469
4418.521851
4435.097072
4412.039228
4430.521649
4426.182324
4458.956617
4406.229346
4516.349318
4383.329701
4482.354352
4431.703266
4418.299388
4397.603687
4415.810284
4461.266175
4466.151493
4427.599096
4402.825887
4423.392783
4422.645980
4426.321159
4428.446596
4425.631727
4416.194083
4424.054370
4434.013983
4435.579632
4420.498207
4405.871373
4441.906313
4446.985713
4394.003657
4433.251379
4420.927594
4438.521371
4428.624026
4450.767393
4439.760884
4447.908311
4446.223954
4411.944851
4391.259287
4441.239297
4449.578187
4436.003317
4451.635746
4437.793144
4431.353757
4454.677388
4440.525219
4452.100048
4410.366147
4427.126441
4428.090647
4438.956005
4418.352914
4425.003829
4423.029276
4430.600465
4435.288502
4428.699713
4423.760845
4413.513455
4436.363779
4399.548615
4438.700677
4466.371554
4393.082219
4456.686535
4448.458049
4367.204924
4463.044805
4414.919735
4435.306420
4417.661690
4414.862722
4439.118608
4370.454801
4471.030719
4418.975413
4400.673065
4436.542312
4436.474259
4431.161299
4425.348670
4430.196819
4420.253182
4425.634930
4436.803176
4434.979520
4419.044295
4418.094432
4452.525608
4446.494397
4410.668854
4435.181217
4452.854109
4418.083315
4382.346991
4437.509640
4434.132833
4425.499300
4425.476445
4415.097804
4426.410523
4434.144438
4423.072981
4475.066113
4400.615228
4394.299178
4447.916234
4434.409556
4431.990880
4417.211691
4429.291873
4427.195451
4427.513258
4439.323941
4429.649035
4418.851139
4428.431829
4436.241125
4441.566408
4405.952978
4428.362268
4444.552623
4422.825783
4384.618669
4443.996861
4447.398003
4418.561387
4461.591937
4415.379803
4438.912274
4419.591865
4423.702863
4430.730577
4421.568938
4438.618036
4457.373882
4370.104471
4398.971321
4473.259179
4450.463359
4420.410524
4426.666965
4440.577356
4432.341722
4424.341031
4426.582886
4433.363253
4437.169815
4430.857754
4417.452735
4439.636826
4427.554504
4438.756732
4397.825768
4445.110436
4434.400786
4436.187898
4459.826430
4396.117930
4461.190718
4401.461424
4409.761494
4432.375843
4431.755528
4438.044711
4401.864085
4432.782708
4469.750704
4452.131123
4412.628726
4424.683920
4453.272534
4436.500403
4428.319548
4418.103628
4437.063347
4428.685402
4426.611007
4411.509679
4445.299249
4404.533961
4450.541287
4398.050880
4423.989136
4454.284812
4431.601492
4432.317368
4376.566318
4449.417553
4396.623164
4431.543948
4432.062365
4391.428356
4439.394616
4422.318077
4429.903774
4449.671074
4452.831597
4418.219022
4339.993300
4461.950591
4389.635853
4416.774192
4434.998061
4435.952171
4433.947576
4442.097834
4413.568313
4438.427621
4429.674208
4436.831531
4420.952722
4434.027294
4447.436958
4405.303796
4423.789721
4448.276804
4413.895338
4441.135987
4400.257933
4446.231167
4503.192033
4417.526650
4437.539840
4434.465504
4416.507376
4419.124330
4436.105860
4426.779811
4442.830204
4474.410210
4475.507405
4486.408295
4451.848002
4433.421729
4435.516152
4427.737913
4413.361895
4440.221721
4419.569663
4432.024462
4407.994125
4444.006458
4409.242076
4426.017939
4444.961840
4424.589960
4404.354029
4448.578822
4378.529408
4421.304344
4509.515478
4565.990701
4383.108891
4375.662886
4409.760566
4418.811454
4450.250514
4452.258219
4384.193148
4454.777803
4407.477030
4402.786655
4406.759095
4448.361510
4434.105362
4432.481894
4435.086963
4439.852403
4431.408773
4413.674471
4428.001448
4447.313408
4426.424581
4400.107453
4457.383722
4426.524849
4438.531498
4428.302929
4457.954237
4414.325091
4489.182771
4354.094319
4326.866858
4486.007303
4396.653530
4413.672162
4438.928523
4427.008578
4489.651066
4441.339518
4412.516998
4441.068581
4390.368447
4425.511528
4412.553918
4433.875326
4429.716309
4429.986730
4415.967913
4434.642225
4429.661496
4417.821946
4404.336607
4402.020546
4455.080396
4433.433425
4400.073960
4445.278132
4391.589790
4429.444097
4454.660263
4391.381985
4489.162952
4481.226745
4421.300658
4405.107501
4423.921530
4446.337722
4421.394738
4381.089426
4451.085087
4447.784901
4417.762464
4399.766640
4432.752720
4429.222271
4433.219717
4426.967937
4437.727167
4435.892630
4436.999658
4423.442770
4428.765600
4441.971498
4422.612989
4420.677883
4448.292172
4426.958773
4420.612757
4459.612156
4420.649347
4436.725644
4385.856400
4490.396010
4349.381736
4368.743321
4425.610111
4426.990388
4438.967001
4442.141573
4401.404448
4437.049374
4421.672683
4446.568316
4465.064234
4437.174397
4437.840480
4432.279303
4429.678191
4427.263267
4431.909991
4427.096252
4432.760176
4428.671036
4410.172368
4443.078036
4448.715869
4404.050027
4439.661486
4412.793598
4424.740556
4395.851567
4463.983077
4354.886599
4462.909494
4402.171735
4445.482935
4390.909828
4431.216690
4431.360627
4445.052646
4459.314833
4405.842799
4460.756553
4455.532006
4411.571658
4413.332294
4422.770260
4431.933236
4428.452864
4429.260053
4429.580107
4434.743213
4434.885136
4428.484283
4441.739695
4411.108281
4415.435461
4427.537131
4440.081713
4425.281492
4431.418380
4434.979414
4452.399217
4382.007544
4452.858080
4429.806953
4575.467482
4374.485895
4478.098776
4428.921000
4438.612158
4430.543719
4395.917748
4453.345007
4400.303013
4410.096634
4428.350726
4414.711276
4430.079691
4432.799375
4431.868799
4431.088734
4422.332288
4432.060919
4416.330419
4434.864049
4431.211606
4422.315071
4441.171328
4414.018254
4411.807157
4434.716647
4409.170628
4463.475425
4456.104358
4468.444791
4366.648833
4380.355524
4508.865489
4408.249607
4424.265517
4457.051187
4427.169723
4386.803074
4420.581430
4442.295860
4464.957483
4407.905336
4406.013331
4433.286445
4432.531500
4426.391924
4431.282208
4430.361785
4441.391152
4424.746676
4420.023697
4424.131877
4428.321436
4410.019689
4444.530296
4444.600647
4434.714768
4388.145095
4449.365987
4415.411734
4446.276233
4397.957940
4461.572810
4413.753512
4445.872011
4413.777142
4421.997833
4437.545849
4424.449442
4404.258712
4450.506248
4354.625849
4421.801915
4447.516636
4429.521565
4425.321478
4432.923152
4436.667320
4421.286817
4412.723524
4435.358351
4446.026882
4408.254265
4438.572431
4422.199198
4415.673345
4464.974005
4392.179594
4405.523024
4464.145453
4374.946883
4396.528895
4434.258102
4448.189209
4421.109796
4426.309998
4436.463298
4450.232677
4410.899419
4439.387544
4475.570294
4375.484346
4475.340334
4366.816099
4422.753085
4428.112333
4434.264416
4433.376876
4419.390253
4430.095301
4449.934051
4416.681275
4408.413927
4417.835018
4446.049177
4393.234797
4437.345891
4433.096268
4433.937860
4441.037169
4404.090154
4444.722237
4427.535801
4403.351562
4439.925023
4422.354980
4418.874015
4474.508579
4413.357351
4435.800664
4464.532071
4442.232924
4364.324466
4441.285764
4408.698165
4457.486770
4429.361335
4427.454758
4420.573500
4435.111839
4423.514949
4413.183377
4425.040439
4437.419485
4432.312705
4423.890860
4422.947469
4444.364187
4411.431574
4411.323024
4406.954160
4429.036235
4399.702586
4462.167085
4439.147366
4491.919791
4410.673246
4409.205188
4451.229480
4407.521865
4436.042117
4439.261306
4463.850300
4416.011860
4461.565890
4434.060136
4440.362199
4430.297765
4433.856669
4428.757338
4436.688926
4421.026619
4431.897318
4427.431500
4405.071611
4412.314223
4433.504780
4443.546430
4421.611625
4421.976426
4424.630607
4448.834537
4454.809193
4399.673600
4460.763801
4362.369281
4413.523126
4431.942915
4406.660020
4456.160034
4447.838567
4419.786902
4414.340000
4416.676821
4427.219932
4401.827078
4422.894192
4414.708986
4425.419545
4434.222801
4420.714298
4425.572833
4417.241228
4438.523951
4403.437876
4441.505819
4450.825294
4404.888525
4405.175714
4452.181345
4419.270720
4426.246550
4411.278652
4422.169169
4423.849436
4464.573041
4413.575207
4447.176546
4418.122568
4571.164519
4424.489826
4367.307450
4425.784406
4446.695543
4416.476614
4446.782597
4497.819120
4423.037561
4448.087998
4428.826330
4433.348551
4422.549857
4442.755707
4434.040056
4424.323920
4431.438308
4426.699992
4386.529499
4447.148927
4438.197041
4426.804963
4406.925501
4450.655382
4418.963675
4467.298787
4394.915344
4473.051102
4404.009976
4428.490728
4418.537312
4420.376124
4427.828015
4430.244249
4424.025880
4445.457481
4416.753507
4434.427745
4391.598146
4379.658143
4437.211426
4426.012677
4431.805909
4428.350943
4420.836393
4421.413669
4441.123853
4426.384782
4423.136467
4441.410886
4440.322782
4390.363544
4441.864408
4435.176907
4442.838877
4418.035126
4433.830313
4413.699157
4454.783881
4430.218168
4433.306332
4412.996457
4425.743391
4420.650355
4426.115353
4498.145133
4401.421574
4409.606801
4443.961652
4386.149343
4435.507659
4410.759015
4425.444733
4429.113682
4427.872098
4435.104099
4447.535464
4415.004923
4422.361112
4434.401488
4401.883241
4415.523249
4447.685840
4433.506434
4418.203723
4399.468430
4448.079878
4435.884629
4390.972601
4367.287188
4389.619597
4458.047723
4445.018455
4410.113759
4399.582292
4404.424830
4447.241888
4414.922679
4435.685556
4463.295528
4464.370973
4429.055943
4460.386053
4436.418034
4434.800977
4425.605852
4426.424678
4412.570262
4443.975693
4440.510759
4416.843124
4436.766359
4420.062354
4436.441400
4395.673213
4456.123938
4435.629203
4407.412331
4440.336535
4416.503416
4492.696038
4454.312305
4437.099418
4446.085949
4439.381690
4450.887413
4421.914446
4443.822254
4434.087876
4424.193507
4429.741790
4419.932201
4418.526571
4413.295522
4428.106285
4426.104118
4434.605392
4440.389820
4434.700312
4435.894797
4409.333885
4421.125534
4451.506152
4408.587241
4422.106944
4447.031780
4426.230365
4417.895792
4435.065092
4445.884877
4381.008306
4446.118862
4392.711762
4368.250448
4434.003330
4435.311870
4470.508681
4396.076127
4478.857358
4379.183632
4427.057490
4427.583375
4457.984851
4363.908127
4420.702106
4430.815974
4430.017137
4434.126510
4411.557646
4436.519172
4424.320975
4439.126714
4444.098841
4388.022469
4447.606422
4429.027042
4422.797920
4411.237283
4457.348380
4416.752347
4452.811606
4409.503532
4384.757967
4477.962944
4469.297590
4449.451764
4399.971666
4405.985081
4440.173092
4445.294689
4428.302438
4374.651068
4462.446638
4429.801345
4450.486088
4422.961707
4439.208125
4432.583811
4428.570756
4434.606911
4432.081591
4428.349234
4402.841281
4414.297297
4435.831743
4443.778272
4392.950261
4448.198970
4431.499531
4435.722494
4396.406777
4432.914141
4444.298899
4457.432522
4346.781468
4474.377125
4458.908635
4493.600832
4498.101353
4429.193765
4454.801703
4457.805397
4445.442498
4427.650918
4393.573465
4402.592315
4436.532575
4434.898690
4424.588143
4421.833163
4425.340099
4413.466180
4444.832391
4408.640961
4451.238075
4408.151239
4410.467715
4425.478839
4440.835413
4400.249690
4440.042202
4412.001112
4440.211387
4383.432387
4439.984573
4311.977847
4506.372852
4490.042028
4425.756365
4406.102537
4526.553145
4373.402668
4438.811558
4389.114384
4468.423268
4360.060909
4431.629901
4440.335601
4429.935579
4435.482207
4436.475995
4427.269023
4433.949329
4427.331217
4432.360733
4406.533950
4427.815817
4433.109927
4424.751848
4403.486238
4425.729087
4438.966996
4403.617665
4458.340455
4393.494694
4461.248152
4459.141311
4506.734843
4430.458272
4423.923628
4356.954639
4417.037705
4423.469190
4430.224540
4451.205602
4466.379826
4441.101008
4380.646997
4452.814915
4423.336240
4428.033778
4427.734264
4419.647405
4422.209507
4412.850685
4429.719609
4432.631345
4417.111875
4418.038631
4421.912552
4441.977972
4408.444887
4428.173176
4440.153827
4429.060310
4434.641696
4439.349208
4443.035226
4471.119733
4662.772550
4381.706635
4542.449394
4416.047967
4422.933014
4469.083449
4385.839052
4420.377255
4453.019008
4435.657489
4414.137522
4426.568963
4428.754650
4428.868736
4439.071301
4428.852093
4418.068103
4436.911677
4437.386939
4425.528517
4455.606625
4422.551654
4414.330542
4434.061851
4440.004606
4398.275457
4429.479725
4415.950722
4414.114878
4421.689548
4431.327151
4400.250670
4422.251409
4494.272405
4412.331596
4427.946795
4461.611616
4362.448489
4373.873424
4494.333022
4465.975104
4411.820142
4424.669492
4432.119352
4412.080825
4420.173257
4443.346935
4447.984018
4397.044107
4447.131320
4413.333400
4426.919882
4413.307598
4436.528340
4425.223359
4430.698388
4425.721663
4423.700129
4402.795982
4424.456822
4458.668663
4453.817368
4425.329290
4489.839988
4385.933062
4416.994314
4416.888485
4453.203661
4478.697573
4438.249059
4375.504489
4413.530405
4398.429377
4425.484255
4430.095203
4425.698334
4450.977010
4417.813637
4408.788453
4411.721502
4453.325238
4400.500731
4443.499865
4430.159053
4428.305743
4424.994872
4431.009756
4425.564577
4433.079229
4441.381545
4363.647276
4436.611385
4481.436355
4415.976313
4482.114359
4442.712291
4425.005275
4471.848218
4456.580270
4419.555749
4526.449535
4371.633225
4460.304446
4417.160021
4423.664765
4434.364367
4415.584258
4424.919141
4424.818814
4446.915194
4418.009803
4420.858653
4452.075222
4433.638927
4395.181322
4402.748296
4410.631471
4428.148335
4418.384630
4423.662078
4412.096011
4418.153430
4434.745004
4448.453478
4436.255764
4443.998508
4435.676317
4444.766045
4463.330826
4431.318264
4463.756729
4416.732841
4360.363115
4390.497118
4420.203564
4420.491935
4432.436152
4429.978940
4421.721119
4439.153141
4401.520182
4440.775682
4420.537453
4440.013254
4414.802762
4410.286635
4464.335374
4414.658708
4424.292298
4419.584128
4427.255358
4455.052183
4399.697636
4425.324891
4445.612505
4419.051092
4424.432255
4456.662953
4383.555795
4370.292646
4484.152704
4410.129688
4398.677972
4459.607800
4463.938104
4416.213225
4428.476250
4418.723234
4422.702416
4424.664017
4416.914736
4455.578002
4400.739776
4439.145107
4411.035310
4426.675738
4398.787539
4432.365675
4423.428584
4442.980808
4397.623643
4451.230242
4391.787392
4436.782499
4375.813041
4423.297609
4426.558810
4456.470149
4390.687029
4473.963262
4427.850939
4456.127130
4395.868047
4387.575914
4465.398079
4358.208156
4417.835387
4423.709320
4421.951091
4435.287878
4435.295533
4399.368683
4458.245604
4406.573065
4438.241231
4419.994171
4432.346521
4421.438702
4424.049764
4439.237232
4410.635910
4435.282586
4403.306971
4416.085079
4454.791778
4418.848272
4487.352664
4431.774878
4391.282048
4429.470555
4413.003733
4479.689821
4466.774085
4460.442859
4473.609410
4458.153953
4413.396938
4416.037149
4424.595145
4430.984363
4415.855091
4421.940667
4443.298276
4397.252085
4431.913253
4425.680247
4427.866271
4418.064013
4429.335022
4434.547127
4393.320816
4432.247841
4438.200452
4392.904257
4412.178712
4395.087718
4398.890382
4444.976859
4438.007063
4433.214457
4351.771707
4463.581818
4435.453920
4380.124255
4459.673916
4416.406081
4451.945628
4432.707756
4404.168010
4419.106028
4423.378226
4431.329409
4414.128285
4443.937922
4424.973244
4430.362197
4414.477647
4417.246896
4449.046718
4425.676101
4431.985660
4448.621783
4432.541535
4464.260942
4450.700458
4390.403656
4457.449866
4452.315999
4460.765410
4420.972195
4419.295477
4435.528517
4435.001874
4441.835990
4454.690308
4435.504654
4389.047173
4441.369790
4381.976836
4458.983873
4422.028677
4431.652330
4436.828990
4423.126573
4397.051743
4457.716120
4424.037374
4435.973416
4404.652329
4436.674827
4433.088965
4426.439872
4397.135877
4413.724244
4410.866413
4451.923432
4418.625985
4495.304645
4373.894082
4348.411857
4392.956695
4467.334236
4469.999542
4422.394882
4448.905691
4444.264236
4459.996157
4365.282544
4434.030007
4421.291010
4360.113737
4439.432867
4429.706457
4403.835473
4428.326304
4441.265613
4410.587813
4420.427294
4432.042299
4408.560363
4424.947160
4410.464187
4442.772405
4444.673227
4451.412050
4418.106084
4413.128148
4480.035701
4390.105866
4404.626296
4540.083079
4391.755905
4416.685696
4500.156244
4447.814430
4446.038330
4444.447519
4427.220359
4453.991040
4471.947115
4392.643570
4429.752604
4426.157688
4424.972610
4447.261451
4436.372938
4394.474995
4406.051786
4418.750431
4416.169869
4406.584200
4429.893710
4417.298687
4403.083121
4384.762230
4438.381941
4438.581910
4416.547646
4437.982380
4442.069656
4410.182953
4443.006453
4470.891587
4488.980460
4457.284312
4419.159896
4483.903794
4428.750517
4424.550344
4448.972851
4472.671045
4440.024590
4482.988068
4425.598636
4432.958876
4424.392754
4417.599618
4439.387854
4449.406347
4429.890690
4426.324878
4415.954262
4423.437952
4449.224016
4439.713737
4437.508734
4423.943159
4403.670606
4438.348864
4407.808643
4434.965514
4441.432978
4441.246751
4656.529259
4365.496808
4472.126143
4494.843018
4473.599925
4467.423430
4422.331398
4383.320913
4384.218620
4347.252463
4372.688421
4429.291302
4442.201196
4404.158460
4434.765116
4431.461722
4396.369494
4440.484369
4416.596221
4435.075124
4435.256680
4417.468554
4423.572944
4419.666094
4435.847827
4413.848629
4432.992617
4370.815997
4412.585326
4447.080560
4382.150010
4462.671476
4421.355050
4457.597975
4421.376284
4429.917292
4438.753127
4429.212043
4425.012860
4455.622687
4424.556482
4446.436250
4425.611417
4416.899535
4436.156531
4425.882777
4404.338822
4444.351938
4414.335389
4405.322554
4414.561311
4434.367332
4412.850981
4446.180695
4416.452398
4435.191240
4424.836619
4439.108385
4408.273609
4446.490736
4435.496270
4418.666175
4403.906163
4470.072744
4446.945696
4464.801437
4395.912186
4418.634135
4447.760550
4421.953316
4453.677685
4416.584688
4420.476945
4433.426056
4424.624491
4425.043196
4450.303834
4437.948967
4387.128660
4448.251713
4416.779443
4433.473024
4409.809217
4421.899095
4428.610381
4422.514010
4440.628811
4435.051478
4433.134704
4422.492803
4446.476416
4492.131204
4376.614937
4426.095663
4467.738244
4453.685358
4450.380593
4369.745959
4482.268840
4428.919071
4430.886728
4432.171721
4421.604206
4383.524950
4418.770195
4430.707410
4413.699863
4392.492075
4428.908120
4431.634888
4454.443524
4446.812365
4391.164446
4443.592231
4414.467706
4439.018255
4403.469356
4420.378346
4405.734853
4385.268320
4420.253604
4436.312997