# vtk DataFile Version 2.0
mfree iwf
ASCII

DATASET UNSTRUCTURED_GRID
POINTS 6231 float
0.000000 0.000300 0.000000
0.000000 0.000310 0.000000
0.000000 0.000320 0.000000
0.000000 0.000330 0.000000
0.000000 0.000340 0.000000
0.000000 0.000350 0.000000
0.000000 0.000360 0.000000
0.000001 0.000370 0.000000
0.000001 0.000380 0.000000
0.000001 0.000390 0.000000
0.000001 0.000400 0.000000
0.000001 0.000410 0.000000
0.000001 0.000420 0.000000
0.000001 0.000430 0.000000
0.000001 0.000440 0.000000
0.000001 0.000450 0.000000
0.000002 0.000460 0.000000
0.000002 0.000471 0.000000
0.000002 0.000480 0.000000
0.000002 0.000492 0.000000
0.000006 0.000501 0.000000
0.000665 0.000881 0.000000
0.000730 0.000929 0.000000
0.000680 0.000892 0.000000
0.000742 0.000936 0.000000
0.000763 0.000945 0.000000
0.000811 0.000957 0.000000
0.000819 0.000957 0.000000
0.000831 0.000954 0.000000
0.000845 0.000953 0.000000
0.000876 0.000958 0.000000
0.000010 0.000300 0.000000
0.000010 0.000310 0.000000
0.000010 0.000320 0.000000
0.000010 0.000330 0.000000
0.000010 0.000340 0.000000
0.000010 0.000350 0.000000
0.000010 0.000360 0.000000
0.000011 0.000370 0.000000
0.000011 0.000380 0.000000
0.000011 0.000390 0.000000
0.000011 0.000400 0.000000
0.000011 0.000410 0.000000
0.000011 0.000420 0.000000
0.000011 0.000430 0.000000
0.000011 0.000440 0.000000
0.000011 0.000450 0.000000
0.000012 0.000460 0.000000
0.000011 0.000472 0.000000
0.000013 0.000478 0.000000
0.000009 0.000492 0.000000
0.000013 0.000498 0.000000
0.000782 0.000945 0.000000
0.000797 0.000948 0.000000
0.000805 0.000950 0.000000
0.000811 0.000949 0.000000
0.000828 0.000945 0.000000
0.000839 0.000946 0.000000
0.000854 0.000944 0.000000
0.000865 0.000947 0.000000
0.000871 0.000946 0.000000
0.000873 0.000954 0.000000
0.000020 0.000300 0.000000
0.000020 0.000310 0.000000
0.000020 0.000320 0.000000
0.000020 0.000330 0.000000
0.000021 0.000340 0.000000
0.000020 0.000350 0.000000
0.000021 0.000360 0.000000
0.000021 0.000370 0.000000
0.000020 0.000380 0.000000
0.000021 0.000390 0.000000
0.000021 0.000400 0.000000
0.000022 0.000410 0.000000
0.000020 0.000420 0.000000
0.000022 0.000430 0.000000
0.000020 0.000439 0.000000
0.000024 0.000451 0.000000
0.000020 0.000460 0.000000
0.000022 0.000470 0.000000
0.000021 0.000481 0.000000
0.000024 0.000494 0.000000
0.000020 0.000497 0.000000
0.000752 0.000929 0.000000
0.000779 0.000940 0.000000
0.000789 0.000943 0.000000
0.000794 0.000941 0.000000
0.000805 0.000936 0.000000
0.000819 0.000942 0.000000
0.000846 0.000940 0.000000
0.000861 0.000942 0.000000
0.000869 0.000934 0.000000
0.000877 0.000933 0.000000
0.000030 0.000300 0.000000
0.000030 0.000310 0.000000
0.000030 0.000320 0.000000
0.000031 0.000330 0.000000
0.000030 0.000340 0.000000
0.000030 0.000349 0.000000
0.000030 0.000360 0.000000
0.000030 0.000370 0.000000
0.000031 0.000380 0.000000
0.000031 0.000390 0.000000
0.000031 0.000400 0.000000
0.000031 0.000411 0.000000
0.000031 0.000420 0.000000
0.000031 0.000430 0.000000
0.000032 0.000440 0.000000
0.000030 0.000450 0.000000
0.000032 0.000459 0.000000
0.000036 0.000473 0.000000
0.000029 0.000478 0.000000
0.000033 0.000488 0.000000
0.000032 0.000497 0.000000
0.000063 0.000500 0.000000
0.000772 0.000934 0.000000
0.000789 0.000927 0.000000
0.000816 0.000933 0.000000
0.000826 0.000927 0.000000
0.000830 0.000938 0.000000
0.000836 0.000932 0.000000
0.000847 0.000931 0.000000
0.000854 0.000931 0.000000
0.000877 0.000925 0.000000
0.000040 0.000300 0.000000
0.000040 0.000310 0.000000
0.000040 0.000320 0.000000
0.000040 0.000329 0.000000
0.000040 0.000340 0.000000
0.000041 0.000351 0.000000
0.000040 0.000360 0.000000
0.000040 0.000370 0.000000
0.000041 0.000380 0.000000
0.000040 0.000390 0.000000
0.000042 0.000399 0.000000
0.000040 0.000410 0.000000
0.000042 0.000420 0.000000
0.000040 0.000431 0.000000
0.000042 0.000439 0.000000
0.000043 0.000450 0.000000
0.000043 0.000460 0.000000
0.000036 0.000469 0.000000
0.000045 0.000477 0.000000
0.000043 0.000496 0.000000
0.000040 0.000498 0.000000
0.000591 0.000723 0.000000
0.000781 0.000926 0.000000
0.000800 0.000927 0.000000
0.000807 0.000923 0.000000
0.000814 0.000931 0.000000
0.000836 0.000923 0.000000
0.000859 0.000921 0.000000
0.000858 0.000911 0.000000
0.000867 0.000925 0.000000
0.000876 0.000915 0.000000
0.000050 0.000300 0.000000
0.000050 0.000310 0.000000
0.000050 0.000319 0.000000
0.000049 0.000331 0.000000
0.000052 0.000340 0.000000
0.000049 0.000348 0.000000
0.000051 0.000360 0.000000
0.000050 0.000371 0.000000
0.000052 0.000379 0.000000
0.000050 0.000390 0.000000
0.000052 0.000400 0.000000
0.000049 0.000411 0.000000
0.000053 0.000420 0.000000
0.000051 0.000430 0.000000
0.000053 0.000440 0.000000
0.000047 0.000450 0.000000
0.000054 0.000458 0.000000
0.000053 0.000470 0.000000
0.000055 0.000482 0.000000
0.000048 0.000488 0.000000
0.000050 0.000498 0.000000
0.000768 0.000939 0.000000
0.000727 0.000920 0.000000
0.000795 0.000922 0.000000
0.000811 0.000912 0.000000
0.000825 0.000917 0.000000
0.000841 0.000917 0.000000
0.000833 0.000910 0.000000
0.000850 0.000919 0.000000
0.000866 0.000913 0.000000
0.000874 0.000904 0.000000
0.000060 0.000300 0.000000
0.000060 0.000310 0.000000
0.000060 0.000321 0.000000
0.000060 0.000329 0.000000
0.000060 0.000340 0.000000
0.000059 0.000352 0.000000
0.000063 0.000359 0.000000
0.000059 0.000368 0.000000
0.000062 0.000381 0.000000
0.000060 0.000390 0.000000
0.000063 0.000400 0.000000
0.000060 0.000409 0.000000
0.000063 0.000418 0.000000
0.000058 0.000431 0.000000
0.000065 0.000439 0.000000
0.000061 0.000450 0.000000
0.000065 0.000460 0.000000
0.000055 0.000472 0.000000
0.000064 0.000475 0.000000
0.000068 0.000486 0.000000
0.000058 0.000496 0.000000
0.000758 0.000937 0.000000
0.000772 0.000925 0.000000
0.000790 0.000910 0.000000
0.000802 0.000912 0.000000
0.000819 0.000905 0.000000
0.000826 0.000899 0.000000
0.000854 0.000900 0.000000
0.000845 0.000907 0.000000
0.000864 0.000901 0.000000
0.000873 0.000895 0.000000
0.000070 0.000300 0.000000
0.000070 0.000310 0.000000
0.000070 0.000320 0.000000
0.000070 0.000330 0.000000
0.000071 0.000341 0.000000
0.000070 0.000349 0.000000
0.000071 0.000358 0.000000
0.000067 0.000373 0.000000
0.000076 0.000376 0.000000
0.000069 0.000389 0.000000
0.000073 0.000400 0.000000
0.000069 0.000412 0.000000
0.000074 0.000421 0.000000
0.000069 0.000430 0.000000
0.000074 0.000439 0.000000
0.000066 0.000451 0.000000
0.000077 0.000459 0.000000
0.000073 0.000470 0.000000
0.000076 0.000485 0.000000
0.000068 0.000495 0.000000
0.000076 0.000496 0.000000
0.000587 0.000698 0.000000
0.000761 0.000924 0.000000
0.000783 0.000915 0.000000
0.000804 0.000895 0.000000
0.000820 0.000914 0.000000
0.000836 0.000899 0.000000
0.000844 0.000900 0.000000
0.000842 0.000888 0.000000
0.000861 0.000892 0.000000
0.000871 0.000885 0.000000
0.000080 0.000300 0.000000
0.000080 0.000310 0.000000
0.000080 0.000320 0.000000
0.000080 0.000330 0.000000
0.000080 0.000340 0.000000
0.000081 0.000352 0.000000
0.000080 0.000363 0.000000
0.000079 0.000370 0.000000
0.000079 0.000383 0.000000
0.000079 0.000392 0.000000
0.000087 0.000396 0.000000
0.000079 0.000408 0.000000
0.000084 0.000417 0.000000
0.000079 0.000429 0.000000
0.000087 0.000444 0.000000
0.000077 0.000447 0.000000
0.000086 0.000463 0.000000
0.000074 0.000470 0.000000
0.000087 0.000473 0.000000
0.000085 0.000482 0.000000
0.000084 0.000495 0.000000
0.000749 0.000934 0.000000
0.000721 0.000924 0.000000
0.000789 0.000897 0.000000
0.000800 0.000907 0.000000
0.000814 0.000897 0.000000
0.000821 0.000888 0.000000
0.000831 0.000890 0.000000
0.000852 0.000888 0.000000
0.000860 0.000882 0.000000
0.000868 0.000875 0.000000
0.000090 0.000300 0.000000
0.000090 0.000310 0.000000
0.000089 0.000320 0.000000
0.000090 0.000329 0.000000
0.000091 0.000340 0.000000
0.000090 0.000349 0.000000
0.000090 0.000359 0.000000
0.000092 0.000368 0.000000
0.000091 0.000379 0.000000
0.000091 0.000388 0.000000
0.000086 0.000406 0.000000
0.000094 0.000409 0.000000
0.000089 0.000425 0.000000
0.000096 0.000425 0.000000
0.000088 0.000436 0.000000
0.000097 0.000455 0.000000
0.000086 0.000454 0.000000
0.000097 0.000471 0.000000
0.000106 0.000480 0.000000
0.000089 0.000494 0.000000
0.000094 0.000495 0.000000
0.000596 0.000740 0.000000
0.000755 0.000918 0.000000
0.000743 0.000923 0.000000
0.000774 0.000915 0.000000
0.000801 0.000886 0.000000
0.000827 0.000880 0.000000
0.000840 0.000882 0.000000
0.000847 0.000876 0.000000
0.000857 0.000873 0.000000
0.000866 0.000866 0.000000
0.000100 0.000300 0.000000
0.000100 0.000310 0.000000
0.000101 0.000319 0.000000
0.000100 0.000331 0.000000
0.000101 0.000340 0.000000
0.000100 0.000351 0.000000
0.000101 0.000361 0.000000
0.000099 0.000372 0.000000
0.000100 0.000380 0.000000
0.000101 0.000391 0.000000
0.000099 0.000400 0.000000
0.000104 0.000407 0.000000
0.000100 0.000418 0.000000
0.000100 0.000436 0.000000
0.000110 0.000443 0.000000
0.000097 0.000445 0.000000
0.000108 0.000460 0.000000
0.000098 0.000467 0.000000
0.000095 0.000481 0.000000
0.000106 0.000491 0.000000
0.000101 0.000494 0.000000
0.000684 0.000896 0.000000
0.000692 0.000902 0.000000
0.000716 0.000920 0.000000
0.000800 0.000896 0.000000
0.000815 0.000886 0.000000
0.000817 0.000876 0.000000
0.000838 0.000872 0.000000
0.000830 0.000867 0.000000
0.000853 0.000866 0.000000
0.000862 0.000857 0.000000
0.000110 0.000300 0.000000
0.000110 0.000310 0.000000
0.000109 0.000321 0.000000
0.000111 0.000329 0.000000
0.000110 0.000339 0.000000
0.000110 0.000350 0.000000
0.000109 0.000359 0.000000
0.000112 0.000368 0.000000
0.000111 0.000378 0.000000
0.000111 0.000390 0.000000
0.000112 0.000399 0.000000
0.000110 0.000414 0.000000
0.000116 0.000422 0.000000
0.000107 0.000427 0.000000
0.000111 0.000433 0.000000
0.000106 0.000449 0.000000
0.000115 0.000461 0.000000
0.000111 0.000470 0.000000
0.000116 0.000480 0.000000
0.000111 0.000493 0.000000
0.000119 0.000491 0.000000
0.000639 0.000843 0.000000
0.000601 0.000761 0.000000
0.000750 0.000913 0.000000
0.000773 0.000903 0.000000
0.000763 0.000900 0.000000
[...]
POINT_DATA 6231
SCALARS density float 1
LOOKUP_TABLE default
4415.211763
4425.520823
4422.452464
4425.590372
4426.870190
4425.646967
4423.712617
4423.670186
4428.209348
4429.211741
4425.577354
4429.719369
4427.286277
4428.629073
4431.444702
4442.012349
4423.892723
4431.701941
4412.560896
4424.335969
4411.437470
4423.401028
4428.036681
4432.756985
4441.734721
4420.356754
4398.278617
4430.567546
4450.340341
4453.047650
4418.070338
4416.230432
4421.371652
4428.678667
4426.560277
4418.185380
4426.615626
4430.490391
4431.527356
4428.411916
4430.120808
4426.392888
4435.905981
4427.310113
4440.558776
4415.574717
4424.219192
4408.925344
4446.131255
4461.042883
4459.702812
4416.228160
4408.534131
4414.314568
4434.490310
4504.005868
4392.706076
4400.230498
4425.619641
4404.823036
4457.140162
4444.102765
4419.941219
4432.479861
4427.519259
4421.129330
4437.239881
4429.615041
4417.577729
4431.772833
4417.557492
4431.558392
4428.491246
4428.921231
4414.365257
4437.619165
4413.880491
4482.715412
4400.004273
4451.674217
4352.999174
4449.998723
4421.015658
4420.776484
4426.597235
4412.789809
4507.381950
4328.534886
4367.722971
4415.991909
4419.353998
4421.069916
4399.768581
4426.840253
4428.375505
4420.431391
4432.813248
4433.666550
4425.368684
4430.617457
4436.410799
4426.601331
4438.907938
4409.184097
4445.132928
4424.495043
4447.055612
4401.581305
4431.486306
4388.213804
4457.349717
4368.458852
4554.071115
4371.468805
4429.870306
4456.372879
4434.148398
4484.753134
4341.464650
4487.376626
4467.034077
4406.630759
4481.594622
4440.749821
4431.839619
4428.875145
4435.786945
4441.923402
4414.482015
4441.875401
4433.504908
4424.296382
4420.232488
4436.325329
4415.152875
4445.184081
4400.460520
4442.833491
4421.480728
4446.557832
4393.008478
4508.346559
4311.720404
4419.707518
4384.104085
4442.483669
4420.640529
4429.305946
4422.688572
4479.692841
4428.805415
4405.622259
4489.931725
4439.050109
4414.898061
4429.599616
4428.632931
4421.069231
4424.968688
4439.538528
4441.624432
4408.418434
4446.476096
4427.843054
4427.387176
4430.239384
4432.843968
4428.868022
4450.871228
4373.812765
4481.542068
4365.124892
4470.009774
4359.232898
4536.751414
4382.417813
4444.836820
4427.202299
4447.528496
4408.574940
4441.210676
4442.794673
4388.892071
4400.031088
4415.104556
4416.591561
4428.720222
4435.707821
4434.767802
4441.543915
4423.341168
4425.439888
4439.147235
4439.321596
4397.939284
4443.415927
4419.589222
4433.846009
4410.781507
4430.620592
4425.865795
4459.968104
4407.688493
4516.659551
4382.967864
4483.362318
4431.740711
4417.903025
4397.331487
4415.729363
4461.302763
4466.053480
4427.080689
4403.046297
4422.825964
4422.941011
4426.485367
4427.883772
4425.573952
4417.905534
4422.142401
4431.267971
4438.158574
4417.971325
4410.631239
4439.309129
4446.956095
4394.146916
4434.297874
4422.600320
4438.237097
4430.656141
4450.686242
4440.319329
4448.024909
4446.977215
4412.060799
4391.382088
4440.753693
4449.528571
4435.780934
4451.282215
4438.328995
4431.037415
4454.645995
4440.825263
4451.932676
4410.650794
4426.968025
4428.603543
4437.076716
4418.187206
4428.234804
4423.100040
4431.689223
4436.486206
4427.590965
4423.439133
4413.382482
4436.756053
4398.266998
4437.447729
4467.716280
4391.462605
4457.630402
4447.829789
4367.655978
4463.428312
4414.946448
4434.965763
4417.542707
4414.009541
4439.176116
4370.469283
4471.534954
4419.285623
4401.018744
4436.416242
4436.606456
4430.260725
4425.614199
4430.283212
4421.773646
4424.044468
4433.027842
4439.165206
4417.556694
4419.210190
4453.801476
4445.725424
4411.401116
4435.666035
4454.587857
4416.953710
4380.982176
4437.829375
4434.110320
4424.822818
4425.750709
4415.725556
4426.043313
4433.694461
4423.002195
4475.058517
4400.658680
4394.195560
4447.190081
4434.605530
4432.283934
4417.244769
4429.663358
4427.371494
4427.409256
4438.044056
4431.712503
4420.364321
4426.247212
4437.062049
4444.905669
4399.610028
4430.715318
4444.649142
4422.751341
4383.588285
4444.775607
4447.218020
4419.725040
4461.995562
4415.779188
4439.684619
4420.433754
4423.561069
4430.683490
4421.757792
4438.822680
4456.926109
4370.284249
4399.757097
4473.088617
4450.470017
4420.619293
4427.524890
4439.334654
4432.672075
4424.911671
4425.156805
4433.607425
4436.069062
4430.655942
4415.956523
4442.848710
4427.456591
4437.442992
4399.146530
4445.700327
4434.309531
4436.698071
4458.430752
4397.696480
4461.967616
4401.243284
4410.573297
4433.343816
4433.425922
4437.739052
4401.560372
4432.926633
4469.266100
4452.374010
4412.427911
4424.639189
4453.391917
4436.845199
4428.450788
4418.528544
4437.068704
4428.610497
4426.948082
4413.427045
4445.596312
4401.687746
4451.299301
4398.037495
4421.743540
4455.048949
4431.418594
4432.522234
4377.195787
4450.240826
4399.514606
4429.510664
4432.701891
4390.977285
4439.375666
4422.280690
4429.623628
4449.346159
4453.017979
4418.282008
4340.078034
4462.063625
4389.681309
4416.925629
4434.509740
4436.270429
4433.158063
4440.575728
4415.500755
4439.057845
4427.699487
4437.344090
4421.270943
4435.269188
4447.661061
4406.266070
4423.439777
4445.635786
4414.371031
4441.624606
4402.899291
4444.921578
4506.369000
4417.764008
4438.543859
4434.436008
4416.584667
4419.374808
4435.586836
4426.511940
4442.594202
4474.321903
4475.332158
4486.858127
4451.938796
4433.043327
4435.547066
4428.221779
4414.517209
4438.721252
4419.003240
4435.982493
4405.756141
4445.152742
4410.566372
4424.469070
4445.185030
4425.122515
4406.953534
4449.375808
4379.581603
4422.308922
4508.200991
4562.660621
4383.500875
4377.105347
4410.605920
4419.340204
4449.343779
4451.231916
4383.591229
4454.639890
4407.328456
4402.714851
4406.656145
4448.287251
4433.935245
4432.592617
4434.588894
4438.211584
4432.514757
4413.612025
4428.357039
4445.554054
4427.079379
4399.884654
4459.530123
4425.319531
4438.565841
4427.895489
4459.072851
4414.596238
4492.287344
4354.677775
4326.370979
4484.598847
4397.512014
4413.370960
4438.643680
4427.790370
4489.631437
4441.622187
4412.587330
4440.889038
4390.040330
4425.565999
4412.567846
4433.988156
4429.398778
4430.858631
4416.720060
4434.438912
4430.048046
4417.453701
4405.567217
4398.775104
4456.226719
4434.016021
4399.931716
4446.488750
4394.662724
4426.974947
4456.186121
4390.367735
4487.833774
4482.425878
4420.935524
4405.258988
4423.786496
4446.324052
4420.671881
4380.248939
4451.836410
4447.829437
4417.818468
4399.779015
4432.635065
4429.359072
4434.098350
4426.779862
4437.128977
4436.579741
4435.360925
4424.506470
4428.752722
4441.325742
4422.362399
4424.343881
4447.384012
4427.681080
4420.517319
4456.757064
4422.853343
4437.156960
4387.008240
4490.359726
4349.996066
4369.081604
4425.901381
4426.510549
4438.061683
4442.436239
4400.843821
4436.523800
4422.252447
4445.605362
4465.486385
4437.066681
4437.977850
4432.007243
4429.789233
4427.437271
4432.141380
4427.983423
4432.020043
4427.722074
4411.769429
4443.265192
4447.570333
4401.308543
4440.622930
4413.517146
4426.504554
4391.503955
4464.180629
4355.821234
4463.451430
4401.871816
4446.049365
4391.133696
4430.940683
4431.647748
4444.620186
4458.761536
4405.029830
4460.017632
4455.422105
4411.562765
4413.322515
4422.705880
4431.986656
4428.579509
4429.434754
4427.957899
4435.525452
4433.591905
4429.726022
4441.564906
4410.044267
4416.398709
4427.924375
4442.019699
4422.779282
4432.906449
4438.244436
4454.828812
4381.753220
4451.269635
4430.102029
4575.677089
4374.265822
4476.296578
4428.496291
4438.556969
4430.060816
4394.268721
4452.798866
4400.330318
4409.359786
4428.109205
4415.036854
4430.579225
4432.068713
4432.547387
4431.562369
4422.703189
4431.950830
4416.178149
4433.799711
4433.171653
4422.146576
4439.308084
4413.549792
4411.892821
4432.806847
4409.285023
4464.337904
4456.416288
4467.718102
4368.202878
4379.813999
4493.091012
4408.683619
4423.414156
4457.319914
4425.281336
4388.020680
4420.486854
4441.938894
4464.218331
4407.781838
4406.488027
4433.428999
4432.542538
4426.364940
4431.334876
4429.306047
4441.784973
4425.515345
4420.701516
4423.961703
4427.490376
4412.976166
4444.012853
4443.142008
4434.587448
4389.075174
4449.406474
4416.538620
4445.294285
4398.788253
4461.963024
4413.633657
4445.566962
4413.596327
4421.066604
4437.859340
4422.871057
4403.767231
4450.004667
4354.541418
4421.718685
4447.259160
4429.478087
4425.676427
4432.445774
4437.057397
4421.786936
4412.779893
4434.847426
4445.415657
4408.762775
4438.366395
4422.736740
4415.872297
4463.116802
4392.796491
4406.325098
4464.657710
4375.664116
4395.623309
4434.936240
4447.940266
4421.614561
4425.776578
4435.835968
4452.477976
4408.772025
4439.267751
4474.703456
4375.068075
4474.670668
4367.128486
4422.560931
4427.839264
4434.079267
4433.525364
4419.081445
4429.970588
4450.197016
4416.988147
4409.112416
4418.339132
4446.229758
4392.929794
4437.133114
4433.580515
4433.874901
4442.652606
4403.600654
4445.799484
4427.849469
4403.334830
4440.122610
4422.557763
4418.583722
4473.806561
4416.325246
4436.198583
4462.954075
4440.879500
4363.235519
4440.242554
4408.678260
4457.314517
4429.499497
4427.281264
4420.983991
4434.908581
4424.272381
4412.296068
4425.781136
4437.271580
4430.434937
4424.463974
4425.243419
4444.558986
4411.828955
4410.499851
4406.578107
4429.450144
4399.171791
4462.588126
4439.104749
4491.733680
4410.486183
4410.480446
4450.750466
4411.437047
4436.931229
4439.337082
4463.665567
4415.093873
4461.303841
4433.540505
4439.966838
4430.236781
4433.632109
4428.982965
4436.190613
4421.486843
4431.833340
4427.762541
4405.296545
4414.377879
4432.714109
4441.596063
4420.259077
4422.809123
4423.406057
4450.107810
4455.600678
4400.868230
4459.413053
4362.271205
4414.553002
4431.476709
4407.126670
4456.855413
4448.432243
4419.124511
4414.020438
4416.548560
4426.338604
4402.219774
4422.010708
4414.737701
4425.439257
4434.280829
4421.030118
4425.647766
4417.431719
4438.522116
4403.621996
4440.960685
4449.675722
4405.798285
4405.918656
4453.243811
4418.053944
4425.899701
4410.731387
4422.319598
4422.758713
4465.370279
4413.449888
4447.330173
4417.688034
4573.131989
4425.940661
4366.790601
4422.832102
4445.492446
4416.537999
4446.165442
4497.159366
4422.401618
4448.104481
4429.044817
4433.084134
4422.409669
4443.026781
4433.697360
4424.532888
4431.002425
4428.059301
4385.816698
4447.172547
4437.780967
4424.911014
4408.422046
4450.301263
4419.838258
4468.712593
4396.144858
4473.131853
4403.460320
4428.808056
4417.634443
4420.753406
4428.571409
4430.403240
4422.078836
4445.052250
4415.403069
4434.042617
4390.506339
4378.577137
4436.837814
4425.694886
4431.968779
4428.781108
4420.832390
4421.140976
4441.748860
4425.363351
4422.402700
4442.109480
4440.164653
4391.375652
4441.788784
4435.037308
4441.757549
4418.462824
4432.335032
4412.921630
4454.785176
4429.431556
4433.238454
4412.229057
4425.670810
4420.732676
4426.128026
4497.384604
4400.972176
4408.854748
4441.718093
4386.464575
4434.544525
4410.565189
4425.199900
4429.342717
4427.474619
4434.704979
4448.054464
4414.072755
4423.754173
4434.140071
4401.838843
4415.214204
4446.528603
4433.383363
4419.003074
4398.810919
4449.743109
4436.666871
4390.903312
4367.439824
4388.789544
4458.740210
4445.273070
4409.919578
4398.890282
4404.014464
4446.321337
4417.497157
4435.364545
4462.725454
4463.321015
4428.553841
4460.157756
4436.240174
4434.794589
4425.705466
4426.828699
4413.296053
4443.248392
4440.508462
4416.549008
4436.904692
4420.376794
4437.285256
4395.049919
4457.063088
4436.626542
4406.205021
4440.240366
4416.393423
4493.229411
4454.880919
4437.060280
4446.062347
4423.586437
4450.949643
4421.940056
4442.054543
4433.922296
4423.392946
4428.993707
4419.601110
4418.212766
4413.526469
4428.322061
4426.028958
4435.061408
4440.307502
4433.499362
4436.594051
4409.460366
4421.559199
4451.717317
4407.199630
4423.204903
4448.153754
4424.200915
4419.264354
4436.011368
4445.637935
4379.592239
4446.968220
4392.335727
4366.854400
4434.033468
4436.366552
4461.614108
4396.028863
4477.719050
4378.745746
4425.113321
4427.452305
4458.645717
4364.929375
4419.728177
4430.780326
4429.767044
4433.751287
4411.979319
4437.223018
4423.487305
4439.298720
4444.538561
4388.152573
4448.670413
4428.407775
4423.664532
4412.876994
4455.227115
4414.207397
4454.120082
4411.488069
4385.899253
4479.236738
4469.726450
4449.431845
4400.157095
4403.687808
4439.084450
4446.068248
4429.090941
4373.435729
4461.521311
4428.923672
4449.522837
4423.068391
4438.753356
4432.964993
4429.318257
4434.112410
4431.618392
4428.963721
4403.106396
4414.336720
4435.380245
4444.371330
4392.889004
4448.205888
4430.006336
4438.046941
4399.718481
4431.456533
4441.489097
4457.963549
4346.193807
4474.359419
4458.426001
4482.326567
4498.968147
4431.795635
4452.767549
4458.807842
4446.189218
4427.819313
4393.016791
4403.480644
4436.254721
4435.271040
4424.581627
4421.196793
4426.358236
4413.354771
4445.308342
4408.294445
4451.903250
4408.677685
4410.210037
4424.381434
4443.202945
4401.063437
4437.915757
4408.723635
4440.754468
4386.196971
4438.937748
4312.443866
4506.159739
4495.014142
4426.441188
4406.901486
4525.833109
4374.283007
4440.040479
4388.407484
4467.759884
4359.072788
4429.203287
4439.749081
4429.903138
4436.016611
4436.499572
4427.934402
4433.533063
4427.780491
4432.081718
4407.438399
4427.031567
4434.573622
4425.832242
4403.218426
4423.480813
4441.425228
4406.776434
4460.283598
4388.071587
4464.016799
4459.012736
4506.875847
4428.982357
4422.999698
4358.153040
4419.660471
4419.664967
4428.354305
4452.078093
4466.219284
4439.921075
4379.673510
4452.588830
4423.387271
4427.773248
4428.294634
4419.205445
4423.656009
4412.776866
4430.229927
4432.870752
4417.212842
4417.729996
4421.462059
4442.061376
4411.761835
4428.184700
4434.470209
4425.154484
4437.352344
4440.265822
4443.156895
4475.335876
4678.555747
4389.018617
4540.043017
4414.921824
4420.154720
4469.599073
4385.668764
4420.071814
4452.441329
4434.829019
4413.335708
4426.739448
4428.054000
4429.360511
4439.292429
4429.480045
4418.394551
4436.778392
4436.267517
4427.706052
4456.807686
4422.810908
4412.510031
4434.345043
4437.098437
4398.360212
4433.610807
4416.528940
4413.853372
4417.149974
4430.062018
4398.283931
4422.695692
4476.814917
4410.673495
4429.204348
4462.976771
4362.342950
4372.372286
4494.356115
4464.780171
4409.936931
4424.274905
4432.696424
4413.446014
4418.797966
4443.829457
4447.223064
4399.340712
4446.368561
4414.786689
4422.898418
4415.868563
4434.543414
4425.895556
4433.003554
4429.553922
4427.686881
4392.959498
4428.578552
4459.434592
4453.503154
4425.310741
4482.809272
4392.937497
4421.769894
4417.587261
4456.951984
4477.674261
4437.388607
4375.145807
4415.006517
4396.899091
4426.278403
4430.480669
4425.083333
4450.871631
4419.807693
4407.781315
4411.461652
4453.851722
4401.276254
4445.804018
4431.392164
4427.461124
4428.774093
4425.721579
4427.818102
4435.676870
4440.556589
4368.227469
4440.611838
4479.825982
4415.160654
4473.738642
4440.461130
4423.948057
4473.150480
4458.395319
4419.902045
4527.541274
4370.455747
4458.756983
4417.534755
4424.762118
4434.269197
4417.403400
4426.234391
4423.328887
4449.112323
4420.551148
4420.790251
4452.254940
4433.904251
4393.194287
4399.492226
4414.207164
4424.701137
4419.498164
4412.707059
4415.858139
4432.804755
4426.294481
4452.277853
4433.515790
4437.269420
4438.150177
4442.717711
4467.031137
4432.452711
4465.013864
4416.647977
4359.828590
4391.055421
4420.699381
4420.724556
4432.677703
4430.146918
4420.923882
4439.937592
4401.308650
4435.037715
4424.078497
4438.644303
4416.726162
4412.188901
4463.630655
4416.959685
4427.172752
4419.814302
4425.079210
4451.143485
4403.794939
4417.853389
4445.511793
4417.839656
4421.552439
4466.344380
4377.850088
4369.554130
4485.276844
4414.426758
4393.692291
4459.082282
4462.794717
4416.153910
4429.559223
4420.300421
4424.141525
4426.583950
4420.334206
4453.155224
4404.814321
4438.254867
4411.346759
4427.974637
4399.925917
4433.954688
4422.116054
4442.486137
4393.515260
4456.106004
4388.258049
4434.215288
4373.902636
4429.849539
4424.522513
4457.974558
4383.215638
4469.430846
4428.214724
4457.075920
4391.207575
4387.846114
4467.176358
4357.532685
4417.455391
4425.170085
4422.756436
4434.612683
4436.226469
4399.994287
4461.079913
4408.193445
4441.288699
4416.358866
4433.393687
4419.837264
4423.352895
4440.425944
4412.820789
4433.942370
4394.332071
4423.126601
4456.197440
4415.261992
4483.268470
4437.992097
4383.357392
4430.091070
4415.167768
4488.126885
4459.748301
4457.317733
4473.034524
4457.845892
4411.929673
4415.682757
4425.648725
4432.541705
4417.424230
4424.014754
4443.192657
4398.885381
4432.015839
4432.040576
4424.527060
4422.279133
4428.842838
4438.669070
4390.057790
4433.751738
4435.395013
4391.025809
4416.395721
4386.418485
4392.657397
4460.702015
4446.661252
4434.222774
4346.125766
4463.422716
4426.357125
4383.901496
4452.324613
4412.745965
4454.456337
4430.888765
4404.145301
4421.227380
4424.582429
4431.107512
4414.486231
4443.052457
4426.562825
4429.655982
4412.802982
4415.532345
4450.700917
4427.834640
4430.110073
4447.422412
4437.749150
4469.963399
4446.682668
4387.589307
4454.000409
4459.059023
4460.078645
4421.771570
4407.288722
4434.236491
4434.968703
4438.972069
4441.523084
4428.798812
4394.053957
4441.931542
4380.238102
4460.191425
4423.621653
4431.140958
4438.100096
4425.835562
4399.527531
4457.487313
4425.906688
4438.849547
4408.593060
4438.373724
4433.447248
4430.213685
4391.975925
4417.239318
4416.805371
4455.265502
4424.097520
4498.130010
4374.114768
4339.640157
4394.726883
4468.307196
4468.378088
4414.351910
4457.457137
4444.573937
4457.603873
4362.531970
4433.170916
4419.568514
4360.660017
4440.565873
4432.140376
4405.933268
4428.194831
4440.202192
4412.585571
4419.065833
4430.695897
4412.649147
4423.928225
4412.276875
4443.031047
4446.644871
4452.616411
4415.221693
4414.502083
4473.468616
4397.940051
4385.581457
4567.394172
4376.412951
4418.805347
4517.597567
4445.493262
4445.933755
4435.375774
4443.135052
4454.908451
4476.317922
4390.843026
4430.681327
4428.003149
4426.394568
4445.899015
4438.066935
4397.897129
4410.850397
4419.321811
4416.549304
4410.304337
4432.882124
4420.817358
4402.719466
4389.923393
4437.549992
4434.195478
4419.683977
4457.587568
4452.361354
4396.237908
4442.087474
4486.449508
4499.245470
4455.083957
4423.760439
4480.052583
4441.319885
4410.786646
4449.041075
4471.792460
4438.338777
4482.576865
4427.555500
4434.558810
4425.736509
4421.110329
4436.861475
4448.034116
4433.997830
4421.955465
4413.658976
4424.522681
4449.579414
4438.021853
4433.083774
4429.410358
4410.017197
4446.528248
4406.472098
4417.348611
4444.320309
4440.260960
4650.782666
4355.276348
4456.219560
4496.394757
4476.968795
4465.843578
4430.322589
4379.729533
4371.968511
4346.005152
4372.968092
4431.563589
4443.626812
4404.244866
4434.573598
4434.141175
4399.951165
4441.588889
4420.075591
4435.308772
4432.058240
4419.897084
4424.245967
4422.939753
4434.973129
4411.569436
4435.756468
4387.654521
4416.259546
4454.407648
4382.528531
4454.439177
4424.632386
4464.978144
4428.461009
4442.307628
4437.194419
4428.287482
4427.984071
4462.569396
4425.195868
4446.641644
4427.725073
4417.118520
4438.285431
4427.242799
4406.072782
4444.407348
4415.929809
4405.210364
4418.487261
4438.187397
4416.203866
4450.732575
4419.569680
4433.281145
4430.893283
4436.079785
4411.405508
4447.945751
4430.019226
4418.961828
4399.736438
4472.107670
4442.010018
4497.102052
4402.890324
4418.246893
4446.038610
4400.945510
4453.602825
4405.686385
4420.210088
4435.708804
4424.573139
4428.067875
4452.240323
4441.467248
4390.589783
4445.964687
4416.812624
4433.750316
4408.951465
4423.793543
4429.738083
4418.093259
4436.721589
4431.730046
4438.121513
4426.288523
4442.649722
4489.696145
4380.578600
4422.977484
4459.254823
4461.879123
4430.555216
4387.455280
4477.109339
4411.225078
4443.152972
4425.256121
4424.468952
4382.785571
4421.411537
4432.024732
4414.137870
4390.733018
4430.547501
4434.859247
4456.227582
4450.314659
4393.443216
4444.380434
4417.974546
4432.062555
4413.985351
4420.984202
4407.372140
4387.748551
4419.182810
4444.404540