# vtk DataFile Version 2.0
mfree iwf
ASCII

DATASET UNSTRUCTURED_GRID
POINTS 6231 float
0.000000 0.000300 0.000000
0.000000 0.000310 0.000000
0.000000 0.000320 0.000000
0.000000 0.000330 0.000000
0.000001 0.000340 0.000000
0.000001 0.000351 0.000000
0.000001 0.000361 0.000000
0.000001 0.000371 0.000000
0.000001 0.000381 0.000000
0.000001 0.000391 0.000000
0.000001 0.000401 0.000000
0.000001 0.000411 0.000000
0.000001 0.000421 0.000000
0.000002 0.000431 0.000000
0.000002 0.000441 0.000000
0.000002 0.000451 0.000000
0.000002 0.000461 0.000000
0.000002 0.000471 0.000000
0.000002 0.000480 0.000000
0.000002 0.000492 0.000000
0.000006 0.000501 0.000000
0.000139 0.000534 0.000000
0.000140 0.000579 0.000000
0.000140 0.000556 0.000000
0.000140 0.000599 0.000000
0.000140 0.000619 0.000000
0.000140 0.000641 0.000000
0.000140 0.000643 0.000000
0.000142 0.000657 0.000000
0.000144 0.000671 0.000000
0.000153 0.000712 0.000000
0.000010 0.000300 0.000000
0.000010 0.000310 0.000000
0.000010 0.000320 0.000000
0.000010 0.000330 0.000000
0.000010 0.000340 0.000000
0.000011 0.000350 0.000000
0.000011 0.000360 0.000000
0.000011 0.000370 0.000000
0.000011 0.000380 0.000000
0.000011 0.000390 0.000000
0.000011 0.000400 0.000000
0.000011 0.000411 0.000000
0.000012 0.000420 0.000000
0.000012 0.000431 0.000000
0.000012 0.000441 0.000000
0.000012 0.000451 0.000000
0.000012 0.000460 0.000000
0.000012 0.000472 0.000000
0.000013 0.000479 0.000000
0.000010 0.000492 0.000000
0.000013 0.000498 0.000000
0.000144 0.000606 0.000000
0.000146 0.000619 0.000000
0.000146 0.000628 0.000000
0.000148 0.000636 0.000000
0.000151 0.000657 0.000000
0.000151 0.000665 0.000000
0.000153 0.000680 0.000000
0.000153 0.000690 0.000000
0.000153 0.000697 0.000000
0.000151 0.000705 0.000000
0.000020 0.000300 0.000000
0.000020 0.000310 0.000000
0.000020 0.000320 0.000000
0.000020 0.000331 0.000000
0.000020 0.000340 0.000000
0.000021 0.000350 0.000000
0.000020 0.000360 0.000000
0.000021 0.000370 0.000000
0.000021 0.000380 0.000000
0.000022 0.000391 0.000000
0.000021 0.000400 0.000000
0.000022 0.000410 0.000000
0.000021 0.000420 0.000000
0.000022 0.000431 0.000000
0.000021 0.000440 0.000000
0.000023 0.000451 0.000000
0.000022 0.000460 0.000000
0.000022 0.000471 0.000000
0.000022 0.000480 0.000000
0.000024 0.000494 0.000000
0.000020 0.000497 0.000000
0.000154 0.000585 0.000000
0.000152 0.000600 0.000000
0.000152 0.000610 0.000000
0.000157 0.000628 0.000000
0.000159 0.000637 0.000000
0.000155 0.000651 0.000000
0.000158 0.000670 0.000000
0.000156 0.000686 0.000000
0.000162 0.000698 0.000000
0.000164 0.000707 0.000000
0.000030 0.000300 0.000000
0.000030 0.000310 0.000000
0.000030 0.000320 0.000000
0.000031 0.000329 0.000000
0.000030 0.000340 0.000000
0.000031 0.000351 0.000000
0.000031 0.000360 0.000000
0.000031 0.000370 0.000000
0.000031 0.000380 0.000000
0.000031 0.000390 0.000000
0.000032 0.000400 0.000000
0.000031 0.000411 0.000000
0.000032 0.000420 0.000000
0.000032 0.000431 0.000000
0.000033 0.000440 0.000000
0.000030 0.000451 0.000000
0.000033 0.000460 0.000000
0.000032 0.000471 0.000000
0.000033 0.000479 0.000000
0.000031 0.000488 0.000000
0.000032 0.000498 0.000000
0.000063 0.000500 0.000000
0.000163 0.000611 0.000000
0.000156 0.000620 0.000000
0.000159 0.000643 0.000000
0.000167 0.000652 0.000000
0.000163 0.000658 0.000000
0.000166 0.000671 0.000000
0.000167 0.000679 0.000000
0.000170 0.000690 0.000000
0.000173 0.000705 0.000000
0.000040 0.000300 0.000000
0.000040 0.000310 0.000000
0.000040 0.000320 0.000000
0.000040 0.000331 0.000000
0.000041 0.000340 0.000000
0.000040 0.000350 0.000000
0.000041 0.000360 0.000000
0.000040 0.000371 0.000000
0.000042 0.000380 0.000000
0.000040 0.000391 0.000000
0.000043 0.000400 0.000000
0.000040 0.000410 0.000000
0.000043 0.000421 0.000000
0.000039 0.000431 0.000000
0.000044 0.000439 0.000000
0.000042 0.000450 0.000000
0.000044 0.000460 0.000000
0.000039 0.000471 0.000000
0.000044 0.000478 0.000000
0.000044 0.000497 0.000000
0.000040 0.000498 0.000000
0.000139 0.000513 0.000000
0.000169 0.000604 0.000000
0.000172 0.000622 0.000000
0.000169 0.000631 0.000000
0.000172 0.000641 0.000000
0.000173 0.000663 0.000000
0.000175 0.000676 0.000000
0.000179 0.000685 0.000000
0.000178 0.000694 0.000000
0.000182 0.000703 0.000000
0.000050 0.000300 0.000000
0.000050 0.000310 0.000000
0.000050 0.000320 0.000000
0.000050 0.000329 0.000000
0.000051 0.000340 0.000000
0.000050 0.000351 0.000000
0.000052 0.000360 0.000000
0.000050 0.000370 0.000000
0.000052 0.000380 0.000000
0.000050 0.000390 0.000000
0.000053 0.000399 0.000000
0.000049 0.000411 0.000000
0.000053 0.000419 0.000000
0.000051 0.000430 0.000000
0.000054 0.000441 0.000000
0.000048 0.000451 0.000000
0.000055 0.000458 0.000000
0.000052 0.000471 0.000000
0.000055 0.000481 0.000000
0.000050 0.000488 0.000000
0.000050 0.000498 0.000000
0.000146 0.000593 0.000000
0.000154 0.000566 0.000000
0.000171 0.000619 0.000000
0.000177 0.000638 0.000000
0.000178 0.000650 0.000000
0.000181 0.000660 0.000000
0.000184 0.000666 0.000000
0.000185 0.000676 0.000000
0.000188 0.000690 0.000000
0.000192 0.000701 0.000000
0.000060 0.000300 0.000000
0.000060 0.000310 0.000000
0.000061 0.000320 0.000000
0.000059 0.000331 0.000000
0.000062 0.000341 0.000000
0.000059 0.000350 0.000000
0.000062 0.000360 0.000000
0.000060 0.000370 0.000000
0.000062 0.000380 0.000000
0.000060 0.000390 0.000000
0.000063 0.000401 0.000000
0.000060 0.000410 0.000000
0.000063 0.000420 0.000000
0.000058 0.000431 0.000000
0.000065 0.000438 0.000000
0.000061 0.000451 0.000000
0.000065 0.000460 0.000000
0.000057 0.000471 0.000000
0.000065 0.000477 0.000000
0.000068 0.000488 0.000000
0.000058 0.000496 0.000000
0.000144 0.000585 0.000000
0.000165 0.000601 0.000000
0.000183 0.000621 0.000000
0.000184 0.000631 0.000000
0.000188 0.000645 0.000000
0.000190 0.000656 0.000000
0.000194 0.000672 0.000000
0.000195 0.000680 0.000000
0.000198 0.000689 0.000000
0.000201 0.000699 0.000000
0.000070 0.000300 0.000000
0.000070 0.000310 0.000000
0.000070 0.000320 0.000000
0.000071 0.000330 0.000000
0.000070 0.000339 0.000000
0.000070 0.000350 0.000000
0.000071 0.000361 0.000000
0.000070 0.000371 0.000000
0.000072 0.000380 0.000000
0.000070 0.000390 0.000000
0.000072 0.000400 0.000000
0.000070 0.000410 0.000000
0.000073 0.000420 0.000000
0.000071 0.000430 0.000000
0.000074 0.000442 0.000000
0.000067 0.000451 0.000000
0.000076 0.000458 0.000000
0.000073 0.000470 0.000000
0.000075 0.000483 0.000000
0.000069 0.000496 0.000000
0.000076 0.000496 0.000000
0.000140 0.000506 0.000000
0.000163 0.000593 0.000000
0.000178 0.000609 0.000000
0.000192 0.000631 0.000000
0.000194 0.000644 0.000000
0.000199 0.000655 0.000000
0.000200 0.000664 0.000000
0.000204 0.000674 0.000000
0.000207 0.000686 0.000000
0.000211 0.000696 0.000000
0.000080 0.000300 0.000000
0.000080 0.000310 0.000000
0.000080 0.000320 0.000000
0.000081 0.000331 0.000000
0.000080 0.000341 0.000000
0.000082 0.000351 0.000000
0.000080 0.000359 0.000000
0.000081 0.000369 0.000000
0.000081 0.000380 0.000000
0.000080 0.000391 0.000000
0.000083 0.000400 0.000000
0.000080 0.000410 0.000000
0.000083 0.000419 0.000000
0.000080 0.000431 0.000000
0.000083 0.000439 0.000000
0.000083 0.000449 0.000000
0.000088 0.000465 0.000000
0.000075 0.000470 0.000000
0.000085 0.000474 0.000000
0.000086 0.000484 0.000000
0.000083 0.000496 0.000000
0.000143 0.000574 0.000000
0.000142 0.000568 0.000000
0.000188 0.000614 0.000000
0.000195 0.000622 0.000000
0.000201 0.000640 0.000000
0.000206 0.000651 0.000000
0.000211 0.000661 0.000000
0.000213 0.000675 0.000000
0.000216 0.000684 0.000000
0.000220 0.000693 0.000000
0.000090 0.000300 0.000000
0.000090 0.000310 0.000000
0.000091 0.000321 0.000000
0.000090 0.000330 0.000000
0.000091 0.000339 0.000000
0.000090 0.000349 0.000000
0.000091 0.000361 0.000000
0.000092 0.000371 0.000000
0.000090 0.000380 0.000000
0.000092 0.000389 0.000000
0.000091 0.000399 0.000000
0.000090 0.000411 0.000000
0.000093 0.000421 0.000000
0.000091 0.000429 0.000000
0.000092 0.000440 0.000000
0.000095 0.000454 0.000000
0.000085 0.000455 0.000000
0.000095 0.000469 0.000000
0.000105 0.000480 0.000000
0.000089 0.000495 0.000000
0.000095 0.000495 0.000000
0.000143 0.000524 0.000000
0.000160 0.000583 0.000000
0.000160 0.000576 0.000000
0.000179 0.000595 0.000000
0.000205 0.000633 0.000000
0.000214 0.000646 0.000000
0.000215 0.000661 0.000000
0.000221 0.000671 0.000000
0.000226 0.000680 0.000000
0.000230 0.000690 0.000000
0.000100 0.000300 0.000000
0.000100 0.000310 0.000000
0.000100 0.000319 0.000000
0.000100 0.000330 0.000000
0.000102 0.000341 0.000000
0.000099 0.000351 0.000000
0.000102 0.000359 0.000000
0.000099 0.000369 0.000000
0.000102 0.000379 0.000000
0.000101 0.000391 0.000000
0.000102 0.000402 0.000000
0.000101 0.000409 0.000000
0.000102 0.000419 0.000000
0.000100 0.000431 0.000000
0.000104 0.000441 0.000000
0.000100 0.000447 0.000000
0.000105 0.000460 0.000000
0.000102 0.000470 0.000000
0.000095 0.000481 0.000000
0.000107 0.000491 0.000000
0.000101 0.000494 0.000000
0.000147 0.000542 0.000000
0.000143 0.000560 0.000000
0.000148 0.000552 0.000000
0.000206 0.000623 0.000000
0.000213 0.000634 0.000000
0.000218 0.000644 0.000000
0.000225 0.000656 0.000000
0.000230 0.000664 0.000000
0.000233 0.000677 0.000000
0.000239 0.000686 0.000000
0.000110 0.000300 0.000000
0.000110 0.000310 0.000000
0.000110 0.000320 0.000000
0.000111 0.000331 0.000000
0.000109 0.000339 0.000000
0.000111 0.000349 0.000000
0.000111 0.000361 0.000000
0.000110 0.000371 0.000000
0.000113 0.000381 0.000000
0.000109 0.000389 0.000000
0.000113 0.000398 0.000000
0.000111 0.000410 0.000000
0.000114 0.000422 0.000000
0.000110 0.000429 0.000000
0.000114 0.000439 0.000000
0.000109 0.000451 0.000000
0.000116 0.000460 0.000000
0.000111 0.000471 0.000000
0.000117 0.000480 0.000000
0.000111 0.000493 0.000000
0.000119 0.000492 0.000000
0.000145 0.000519 0.000000
0.000150 0.000528 0.000000
0.000170 0.000585 0.000000
0.000187 0.000606 0.000000
0.000188 0.000597 0.000000
[...]
POINT_DATA 6231
SCALARS density float 1
LOOKUP_TABLE default
4386.287968
4423.949796
4421.405674
4415.987888
4419.913838
4425.306441
4424.371797
4425.635959
4427.354340
4427.086341
4425.746344
4428.336849
4424.982260
4425.544878
4426.073347
4440.415254
4423.384755
4432.182400
4422.059846
4426.786905
4414.380350
4716.576620
4604.593995
4582.434660
4546.562275
4533.260811
4438.614401
4442.270470
4431.727384
4456.670423
4413.166718
4397.629797
4418.481783
4415.995626
4415.865887
4430.746137
4420.159468
4417.793291
4426.014817
4423.873025
4425.239871
4422.290095
4429.948686
4429.268734
4443.575653
4415.505557
4426.940370
4409.617928
4462.909843
4424.657710
4475.407451
4411.309561
4398.880116
4386.647968
4372.470400
4418.137255
4384.695221
4405.080584
4410.700815
4403.947493
4411.535590
4454.741183
4402.859598
4414.822454
4422.080119
4424.928433
4420.661775
4415.963733
4431.226343
4429.128984
4413.818564
4436.337367
4423.109670
4433.382304
4410.837668
4426.923209
4417.033835
4467.944703
4390.445879
4458.879162
4324.961855
4439.095294
4398.039768
4466.406113
4466.891857
4474.515018
4472.147746
4448.812214
4379.912932
4429.907721
4429.400044
4473.171527
4398.124607
4409.871397
4428.213420
4422.255789
4415.977309
4412.355673
4433.552392
4423.902639
4420.874029
4423.554201
4433.439721
4408.067842
4441.626736
4423.083832
4450.535264
4397.341444
4442.742186
4393.563348
4491.360463
4340.352309
4626.986034
4355.928855
4399.895060
4407.098357
4468.444619
4434.691888
4434.546875
4494.019571
4428.201050
4433.273002
4441.026617
4433.516798
4421.810471
4423.888230
4409.645840
4435.422887
4432.021255
4429.455286
4404.133512
4436.684774
4426.305822
4429.843122
4420.310540
4442.877864
4396.711564
4450.277046
4411.399578
4454.490850
4393.564780
4475.361791
4321.227570
4416.178479
4383.113363
4614.494969
4461.792193
4473.106235
4401.531076
4460.396953
4409.528405
4442.976724
4443.461326
4360.418575
4438.244706
4421.921894
4421.643394
4430.356980
4433.886303
4401.093639
4427.537955
4433.440251
4438.192012
4400.728958
4439.660096
4419.834327
4436.221016
4427.856207
4443.155662
4395.887112
4457.674368
4374.881573
4493.467729
4362.282852
4554.524308
4374.690240
4406.103700
4456.277874
4466.990760
4471.771933
4404.672720
4478.119657
4437.544211
4400.623490
4443.605988
4423.038887
4411.638059
4421.923751
4427.037437
4413.734321
4448.592547
4438.241624
4407.229025
4424.004550
4431.193289
4435.309276
4412.892745
4433.744446
4410.771742
4443.603175
4405.518623
4470.469166
4410.228891
4479.577376
4353.269329
4561.642922
4419.080348
4407.542618
4436.595793
4465.471485
4448.350119
4442.458680
4446.803775
4433.578543
4447.129622
4394.507532
4433.074884
4419.040897
4443.057302
4419.854004
4421.164080
4440.326510
4407.000473
4443.371406
4432.328019
4419.843296
4425.959837
4415.660400
4435.643146
4419.915685
4438.788128
4406.367818
4441.018701
4399.312349
4472.844308
4400.505562
4387.650352
4376.370572
4579.463532
4467.321690
4446.744331
4437.905262
4471.188048
4435.261214
4408.214952
4446.691096
4409.847771
4418.616062
4435.146746
4423.204532
4409.664795
4441.557211
4402.230198
4439.464377
4448.030362
4405.440811
4435.423158
4422.745847
4439.305994
4427.760138
4413.734913
4430.320898
4440.440815
4444.945295
4463.697504
4466.300777
4347.061078
4561.156492
4400.278021
4434.814038
4406.444951
4452.893668
4460.904328
4451.986300
4437.557262
4462.582406
4417.598072
4434.613539
4413.475038
4422.276450
4420.005043
4442.405609
4440.499988
4409.003871
4443.999717
4393.363900
4449.305186
4441.161068
4405.843161
4430.397750
4408.005287
4457.464492
4423.448101
4404.993656
4385.175069
4443.986966
4457.611300
4419.965199
4401.713548
4399.925529
4375.963218
4460.124365
4444.071901
4466.689703
4469.217722
4449.418411
4450.902570
4408.958078
4435.995368
4416.198940
4417.786401
4433.817983
4430.983065
4398.611630
4442.558821
4420.285790
4427.307415
4443.265746
4397.111116
4434.208526
4437.329866
4418.912682
4417.748621
4402.599291
4447.020536
4449.343930
4405.977557
4440.683647
4394.512980
4450.137784
4428.262031
4438.587676
4409.891688
4464.723432
4435.000239
4444.388543
4483.063061
4444.306846
4455.788596
4407.412688
4405.708653
4425.936635
4428.459375
4407.461138
4445.826092
4451.618692
4395.143488
4448.382807
4407.534958
4450.673325
4445.538643
4398.714656
4432.033847
4434.112412
4436.433507
4402.814749
4409.597857
4453.403397
4399.271696
4417.560923
4407.624165
4425.020253
4415.509867
4461.698639
4405.953049
4403.286236
4415.073823
4428.410250
4451.398801
4456.846113
4431.889497
4404.298144
4426.211370
4429.194683
4434.275499
4425.637387
4393.482021
4449.438262
4439.344869
4397.528525
4448.574140
4400.745771
4457.815419
4425.354854
4399.065219
4415.627356
4444.562911
4416.878959
4425.374982
4420.117363
4483.904528
4448.987348
4407.802725
4523.546009
4460.309108
4467.618825
4488.851522
4411.585295
4416.431063
4446.689977
4376.901548
4438.263413
4401.196201
4429.213005
4416.520798
4425.081588
4410.875498
4447.709412
4443.144354
4393.842480
4445.579124
4417.886521
4411.854533
4449.899251
4404.613681
4446.061210
4427.007267
4418.124381
4415.524584
4441.478959
4419.985075
4381.328136
4418.287066
4415.116139
4512.849858
4482.027409
4444.199024
4439.948136
4493.525172
4450.676273
4486.155838
4492.321484
4467.536342
4403.375671
4422.855674
4425.660491
4444.294466
4425.262466
4417.013812
4391.682475
4454.967872
4448.180950
4394.653583
4449.872535
4395.998097
4435.404899
4441.439332
4398.085109
4412.595703
4435.726256
4421.231240
4436.304733
4504.684986
4464.345249
4403.192142
4408.568461
4419.864514
4461.856370
4444.645780
4444.483390
4483.260821
4390.917530
4462.098341
4421.891244
4414.599873
4425.646304
4425.314092
4423.534651
4407.847629
4438.769690
4444.829999
4414.750085
4393.636653
4449.026605
4438.207517
4403.905118
4452.493083
4393.410362
4448.310593
4427.813873
4428.740910
4408.962538
4452.428412
4409.372756
4410.472390
4506.394020
4462.727585
4440.502773
4470.835438
4445.136202
4449.246783
4426.754625
4408.047235
4445.967989
4423.485946
4418.257717
4420.622283
4428.083457
4419.557247
4444.671663
4429.527534
4404.008702
4415.895972
4447.353637
4436.231763
4395.995273
4439.201310
4408.259060
4421.577463
4443.757446
4385.788976
4443.128452
4392.187568
4451.171556
4383.152985
4449.464180
4474.131211
4447.941979
4487.185239
4438.086640
4472.037046
4436.615041
4443.918505
4420.305884
4401.226978
4446.204692
4413.531100
4416.272987
4444.141430
4423.894141
4416.770406
4403.284565
4450.717048
4446.809593
4399.625907
4395.956872
4446.885023
4446.023111
4400.851742
4434.852894
4393.086764
4446.916043
4427.365638
4441.848972
4416.548878
4470.527658
4426.576264
4441.437519
4408.471592
4465.265915
4452.976712
4451.630830
4440.194230
4437.367300
4448.150942
4421.136092
4427.620183
4413.234721
4431.218089
4429.132227
4405.749373
4444.550362
4439.498740
4409.149474
4397.965392
4450.216088
4456.906648
4393.877237
4392.528747
4442.397530
4441.167569
4390.088836
4442.511894
4370.871628
4452.542254
4363.995449
4455.153705
4427.455037
4447.817546
4440.461967
4432.306478
4458.599208
4445.512258
4454.105850
4433.749678
4423.008630
4398.440279
4452.828666
4419.357481
4423.950661
4420.670194
4441.102619
4441.286232
4398.064856
4434.062656
4443.538776
4413.251218
4393.609414
4441.566973
4458.645918
4390.077409
4405.245130
4434.057785
4422.782175
4405.639388
4431.848933
4409.144166
4435.460136
4407.256188
4435.015423
4437.206002
4446.823273
4427.197894
4462.318447
4443.407596
4452.816678
4474.143711
4452.237498
4421.293997
4425.478743
4425.800264
4423.983882
4430.250124
4397.117805
4448.154174
4448.915047
4398.225521
4417.225521
4447.883528
4428.499402
4390.471118
4438.168912
4442.858926
4399.940086
4412.333823
4426.718565
4417.904520
4410.946258
4418.818266
4424.875703
4433.762065
4425.334813
4444.181511
4444.497659
4429.590774
4462.091192
4445.746512
4486.197560
4409.385105
4429.157423
4440.873660
4421.292857
4423.485274
4425.741971
4437.884041
4439.332609
4388.432515
4452.130702
4448.282150
4396.860005
4400.410885
4447.209488
4444.049653
4385.336676
4438.103632
4428.078465
4398.373744
4421.760761
4420.339766
4442.084948
4406.206665
4422.897532
4464.195064
4420.198152
4441.902584
4401.743986
4457.409894
4424.882737
4418.406772
4483.072865
4406.949196
4452.958451
4418.713838
4439.094986
4430.253037
4417.674737
4411.163787
4442.154669
4449.636098
4386.132854
4448.923675
4451.408632
4395.995358
4396.906356
4443.941986
4443.817865
4392.799742
4439.232341
4419.380682
4398.470563
4419.542991
4423.594818
4438.739934
4424.725481
4441.513513
4458.384661
4440.800004
4473.314070
4397.237869
4450.282485
4477.603464
4407.940732
4469.436728
4435.557556
4426.926651
4412.359562
4435.229259
4439.052950
4421.117200
4396.235192
4445.206796
4452.993075
4387.307975
4439.990658
4449.527198
4405.550351
4392.282654
4425.259877
4442.179524
4396.713817
4430.851723
4424.165180
4421.223947
4432.781674
4444.697612
4423.384078
4419.442663
4435.717314
4439.161236
4453.349402
4456.310418
4429.826481
4455.461041
4447.974773
4424.932620
4419.232792
4441.364732
4441.866155
4406.506438
4426.450110
4443.594814
4431.564352
4388.654492
4448.705315
4456.532311
4389.259996
4417.346565
4453.107678
4426.722387
4388.414029
4412.993331
4453.284156
4403.378544
4415.240874
4413.148055
4434.190589
4427.062045
4435.341143
4444.390673
4397.764716
4462.477940
4407.972043
4477.666147
4451.031581
4372.101832
4424.927473
4432.484194
4434.729317
4403.002159
4446.746712
4446.347261
4402.287364
4417.278420
4443.709293
4442.420910
4384.450449
4458.721349
4456.880591
4385.748842
4397.564821
4455.769410
4439.665248
4392.572135
4415.042210
4419.154352
4439.366813
4438.338049
4441.458872
4417.295632
4444.587930
4458.657364
4435.132765
4462.047941
4475.261271
4457.546048
4464.348351
4427.528949
4426.430080
4419.645793
4441.465448
4443.738775
4400.964956
4444.481803
4450.155461
4405.335026
4411.482660
4442.266318
4449.325883
4384.674290
4464.772418
4457.807097
4381.011703
4403.560878
4434.986134
4456.371205
4395.039384
4410.027625
4411.109128
4445.773518
4438.895026
4430.674766
4449.540114
4460.050537
4435.911477
4465.135764
4448.255400
4474.385114
4425.216054
4438.414941
4435.857971
4429.719861
4406.266773
4446.773771
4450.117270
4398.792810
4435.214111
4448.951486
4416.577795
4400.326829
4443.706316
4453.545869
4390.417221
4461.415144
4444.623502
4394.846870
4393.487972
4439.818162
4449.924743
4411.417092
4433.968405
4414.028832
4457.527046
4429.396067
4464.585614
4467.173953
4476.496994
4448.214767
4463.026888
4438.796992
4430.819047
4415.280237
4430.890777
4443.171075
4434.884735
4399.299430
4452.240867
4457.431749
4396.891056
4425.346126
4446.699781
4432.543207
4388.740982
4449.336948
4456.322740
4391.145245
4434.291023
4442.668117
4430.940636
4421.662175
4435.745470
4452.571217
4414.043876
4455.159818
4413.281128
4470.224666
4436.064823
4465.073362
4454.608536
4457.327799
4430.741058
4424.411538
4441.789566
4444.643538
4411.778161
4422.200544
4447.614754
4440.449089
4396.557051
4451.076967
4461.168753
4396.362805
4414.921186
4446.009811
4447.400109
4389.646560
4459.226785
4447.667667
4385.264010
4427.434533
4450.004405
4427.717340
4424.991275
4438.746104
4436.552908
4463.697805
4450.021480
4451.015276
4451.291990
4462.621775
4455.166267
4426.862168
4430.970291
4434.392392
4407.608139
4448.499080
4446.879086
4414.961806
4414.102468
4448.219494
4450.505665
4393.981319
4452.669805
4461.063568
4398.177091
4412.640430
4447.858337
4456.336105
4404.307199
4474.696136
4423.715649
4435.708386
4427.840735
4451.596928
4454.278436
4425.451277
4464.330469
4419.612362
4469.285760
4434.903471
4465.195365
4452.956313
4437.557739
4433.382024
4427.992397
4442.005944
4447.150891
4408.063441
4439.542863
4451.087524
4419.389485
4406.876918
4446.852891
4456.093005
4393.889655
4449.987205
4453.639546
4410.449248
4399.777550
4461.727469
4463.770162
4377.001036
4443.733429
4436.295861
4418.602369
4424.882641
4455.033969
4456.428435
4471.947509
4452.914798
4460.303281
4458.794668
4452.735875
4434.577391
4431.455160
4431.146440
4438.637054
4409.203558
4450.184322
4452.091859
4404.839315
4434.367674
4449.635336
4430.742598
4402.411895
4445.532225
4467.358108
4388.669684
4444.702518
4450.511391
4420.957201
4423.728226
4467.485065
4451.177294
4397.506480
4439.003847
4449.908832
4434.290398
4429.279664
4462.583886
4432.219493
4455.578334
4451.213007
4453.909384
4433.391993
4436.649103
4430.127742
4429.422504
4439.011780
4443.621997
4405.000238
4449.392336
4456.436946
4403.955652
4425.857543
4447.715005
4440.751215
4398.798092
4456.719189
4464.409305
4397.008769
4432.650247
4442.700472
4452.292982
4410.968492
4459.526752
4453.819618
4417.349841
4447.607504
4448.056217
4462.947490
4455.858007
4457.961642
4448.651755
4455.692033
4436.429453
4432.384466
4433.301171
4430.103676
4424.325147
4419.076690
4451.611692
4450.535697
4400.495610
4449.316313
4460.890440
4405.248606
4426.121024
4437.860761
4455.096416
4393.771903
4473.059654
4467.601889
4387.345496
4434.102858
4457.084958
4466.304387
4405.504795
4448.164655
4445.752255
4418.926164
4456.337121
4442.542141
4464.479705
4440.976617
4451.899311
4431.988849
4423.083254
4434.203427
4423.867607
4443.169206
4437.042701
4432.321763
4405.672434
4452.805216
4453.880377
4397.142919
4448.709588
4454.665630
4411.702064
4420.527614
4441.448198
4464.717116
4387.859709
4470.436006
4448.056921
4395.845508
4416.103516
4456.282804
4464.992316
4411.927250
4448.203115
4438.568799
4456.351634
4436.737233
4457.254013
4450.212054
4433.323434
4438.622234
4445.932781
4423.209502
4443.271216
4419.088728
4437.432772
4447.647006
4442.056228
4401.594528
4447.248950
4464.302977
4396.042763
4443.919303
4447.494350
4423.112095
4419.011623
4458.682278
4470.220027
4385.793811
4454.831066
4446.431737
4449.544361
4400.237937
4453.769003
4457.973190
4424.179510
4464.302449
4434.575709
4456.143007
4447.671888
4449.339795
4436.295862
4418.259245
4442.352573
4420.936175
4433.897959
4444.089851
4419.042427
4417.896800
4452.015202
4449.858301
4395.574247
4455.388887
4464.665782
4398.809424
4440.957008
4438.611066
4444.103044
4418.295538
4472.764432
4476.571887
4369.371295
4446.240240
4453.319650
4444.760639
4409.465605
4438.144889
4448.237394
4449.299801
4454.145848
4444.739470
4439.785856
4423.131931
4445.143234
4451.211686
4411.073957
4449.814079
4416.116441
4450.265927
4447.662427
4424.324452
4409.532163
4449.759308
4457.412605
4393.053837
4456.267635
4457.016293
4407.521180
4433.686518
4438.031844
4458.420677
4419.409879
4470.221780
4433.229355
4401.269926
4445.526139
4459.569703
4441.865502
4442.544515
4447.961663
4450.260623
4448.443695
4430.760616
4439.716001
4443.855072
4407.747035
4450.748321
4444.025958
4406.957719
4455.468830
4405.404865
4444.993859
4441.403074
4430.488042
4404.241860
4451.009322
4467.702726
4389.779870
4455.003311
4439.969529
4422.407536
4421.332509
4442.904111
4474.648169
4414.531681
4451.762979
4431.091423
4442.172199
4431.881096
4450.026094
4451.692311
4444.374406
4449.814137
4439.130813
4437.242095
4417.353724
4450.409964
4457.192150
4409.555615
4447.450373
4425.048244
4432.762369
4461.118812
4405.488363
4430.325279
4445.250400
4435.951700
4399.947058
4459.439858
4468.885078
4390.398911
4462.191424
4412.539322
4445.179102
4408.158741
4453.835635
4466.264214
4401.504905
4438.648193
4449.271450
4446.554042
4440.533295
4448.696559
4446.508568
4440.371442
4432.293048
4445.179315
4439.804041
4404.348305
4449.531593
4461.574482
4398.663764
4452.698900
4400.004566
4457.020023
4449.752258
4404.943023
4425.296623
4447.403673
4447.329509
4401.093046
4465.607640
4452.777832
4388.306918
4474.764904
4421.044703
4455.071957
4398.101680
4462.026010
4442.432053
4412.115018
4442.254888
4429.727836
4457.588221
4446.067307
4443.176522
4432.726053
4433.372565
4426.022246
4443.888811
4450.258400
4409.625112
4449.847293
4444.543526
4409.990130
4460.241332
4397.552999
4450.066823
4444.836857
4412.097853
4415.053665
4446.031039
4462.850345
4410.646832
4472.091433
4408.295007
4401.822728
4457.354010
4437.754256
4477.749619
4394.174703
4464.323969
4435.580702
4445.058020
4443.837195
4448.592082
4436.151691
4427.076515
4438.538137
4438.958787
4430.000952
4416.033800
4446.270362
4462.552425
4409.586937
4437.884516
4414.834350
4437.702880
4463.599866
4398.768765
4440.235715
4445.507160
4428.668711
4405.081939
4443.231769
4465.817011
4413.049006
4458.492004
4396.378773
4438.145912
4424.013191
4454.366364
4461.629629
4394.069250
4468.476418
4425.327217
4451.060313
4429.500546
4441.733953
4443.525844
4417.220567
4431.283927
4449.204629
4426.096294
4411.874874
4443.417781
4458.556817
4419.825593
4443.885873
4404.714527
4456.020637
4459.709225
4397.224365
4430.430091
4449.841407
4447.111541
4396.848400
4453.849977
4444.491771
4409.371137
4461.903683
4451.755815
4438.347285
4435.832747
4451.076462
4452.295340
4437.989411
4454.785993
4439.502294
4442.260845
4412.113320
4451.642114
4445.771161
4410.917192
4421.182685
4460.962250
4446.701830
4412.088116
4413.814915
4439.670373
4424.918351
4451.371817
4402.640227
4459.914514
4454.220044
4399.189236
4430.210421
4449.662816
4459.623744
4418.455052
4444.072560
4409.151803
4458.804867
4414.131012
4447.535149
4446.880652
4440.352094
4453.768512
4440.300692
4437.934787
4426.776730
4438.656197
4449.546595
4408.387815
4448.306862
4453.536222
4400.929139
4413.906946
4462.397445
4456.590734
4422.739584
4435.329657
4414.931163
4442.093046
4452.582958
4405.500923
4457.065443
4434.919532
4418.297417
4413.573733
4445.567595
4477.051717
4401.025980
4454.149905
4447.492495
4441.755494
4422.571630
4440.565951
4459.454586
4439.619890
4432.990467
4438.483734
4441.196877
4414.032514
4436.624789
4453.480504
4406.703675
4443.301792
4460.130876
4407.029639
4412.055445
4437.435393
4446.158384
4425.791671
4445.939685
4405.390679
4451.603946
4456.581637
4405.082700
4446.587296
4440.193438
4437.661122
4401.477558
4449.491239
4411.768359
4428.644794
4424.363092
4456.229418
4447.733092
4441.923852
4449.834707
4440.058803
4434.764857
4421.125624
4440.614117
4449.349014
4402.547592
4448.451131
4448.592269
4411.306904
4415.606591
4468.598736
4449.411584
4411.654669
4424.150030
4422.460058
4435.651643
4445.250215
4407.612466
4458.020745
4449.985188
4401.997085
4453.057378
4439.179613
4472.269228
4413.100574
4448.788302
4433.578043
4419.756426
4438.731455
4432.000412
4449.071016
4433.972374
4426.944188
4445.748991
4434.993857
4416.788158
4437.305989
4454.016426
4401.368179
4455.767311
4460.797473
4396.293620
4400.553713
4464.875332
4452.135858
4417.449580
4446.950428
4406.518206
4445.800865
4445.213646
4410.941256
4450.799594
4414.206969
4426.175509
4431.257472
4454.432346
4428.786026
4429.575404
4447.870331
4437.066190
4449.017690
4451.075984
4437.261347
4433.210595
4436.161572
4419.400937
4444.403792
4443.418033
4404.915684
4442.823053
4445.928091
4406.109478
4442.920452
4467.326870
4416.858443
4408.297101
4448.627260
4434.275376
4426.069945
4454.300061
4404.450628
4448.778421
4449.779028
4420.077216
4448.155651
4451.866700
4439.535432
4430.068043
4442.984581
4428.819704
4442.967487
4441.324201
4443.919292
4433.163729
4429.645267
4427.560369
4443.786820
4433.153252
4414.255353
4442.679816
4448.968169
4398.340967
4450.621913
4446.159399
4411.850983
4401.958257
4461.368493
4447.233936
4409.643447
4442.565212
4415.420169
4443.438352
4447.556645
4405.364258
4449.849902
4445.061141
4402.327436
4438.978135
4441.997175
4436.521164
4439.476885
4443.903469
4449.719854
4444.765105
4426.404455
4440.653692
4437.001612
4427.136045
4420.343763
4447.991870
4437.983535
4411.332495
4440.405052
4447.741819
4401.133359
4454.117927
4462.665770
4412.074676
4397.182421
4452.514467
4445.903787
4414.706756
4448.281998
4403.511745
4452.688725
4445.894697
4415.400640
4447.135123
4439.355632
4425.720430
4433.105726
4446.276779
4438.747801
4445.135752
4447.456977
4435.833158
4437.224633
4414.612382
4440.655115
4441.291289
4423.396297
4411.288258
4450.547721
4448.976392
4405.102102
4439.699569
4444.362740
4401.216361
4436.866112
4461.608778
4423.605230
4413.348117
4443.409782