# vtk DataFile Version 2.0
mfree iwf
ASCII

DATASET UNSTRUCTURED_GRID
POINTS 6231 float
0.000000 0.000300 0.000000
0.000000 0.000310 0.000000
0.000000 0.000320 0.000000
0.000000 0.000330 0.000000
0.000000 0.000340 0.000000
0.000000 0.000350 0.000000
0.000000 0.000360 0.000000
0.000001 0.000370 0.000000
0.000001 0.000380 0.000000
0.000001 0.000390 0.000000
0.000001 0.000400 0.000000
0.000001 0.000410 0.000000
0.000001 0.000420 0.000000
0.000001 0.000430 0.000000
0.000001 0.000440 0.000000
0.000002 0.000450 0.000000
0.000002 0.000460 0.000000
0.000002 0.000471 0.000000
0.000002 0.000480 0.000000
0.000002 0.000492 0.000000
0.000006 0.000501 0.000000
0.000692 0.000896 0.000000
0.000759 0.000942 0.000000
0.000708 0.000906 0.000000
0.000771 0.000949 0.000000
0.000792 0.000957 0.000000
0.000840 0.000967 0.000000
0.000848 0.000967 0.000000
0.000861 0.000963 0.000000
0.000874 0.000963 0.000000
0.000905 0.000967 0.000000
0.000010 0.000300 0.000000
0.000010 0.000310 0.000000
0.000010 0.000320 0.000000
0.000010 0.000330 0.000000
0.000010 0.000340 0.000000
0.000010 0.000350 0.000000
0.000010 0.000360 0.000000
0.000011 0.000370 0.000000
0.000011 0.000380 0.000000
0.000011 0.000390 0.000000
0.000011 0.000400 0.000000
0.000011 0.000410 0.000000
0.000011 0.000420 0.000000
0.000011 0.000430 0.000000
0.000011 0.000440 0.000000
0.000011 0.000450 0.000000
0.000012 0.000460 0.000000
0.000012 0.000472 0.000000
0.000013 0.000478 0.000000
0.000009 0.000492 0.000000
0.000013 0.000498 0.000000
0.000811 0.000956 0.000000
0.000826 0.000959 0.000000
0.000834 0.000961 0.000000
0.000840 0.000959 0.000000
0.000857 0.000955 0.000000
0.000868 0.000955 0.000000
0.000883 0.000953 0.000000
0.000894 0.000956 0.000000
0.000900 0.000955 0.000000
0.000902 0.000962 0.000000
0.000020 0.000300 0.000000
0.000020 0.000310 0.000000
0.000020 0.000320 0.000000
0.000020 0.000330 0.000000
0.000021 0.000340 0.000000
0.000020 0.000350 0.000000
0.000020 0.000360 0.000000
0.000021 0.000370 0.000000
0.000020 0.000380 0.000000
0.000021 0.000390 0.000000
0.000021 0.000400 0.000000
0.000021 0.000410 0.000000
0.000021 0.000420 0.000000
0.000022 0.000430 0.000000
0.000020 0.000440 0.000000
0.000023 0.000451 0.000000
0.000021 0.000460 0.000000
0.000022 0.000470 0.000000
0.000021 0.000481 0.000000
0.000024 0.000494 0.000000
0.000020 0.000497 0.000000
0.000780 0.000941 0.000000
0.000808 0.000951 0.000000
0.000818 0.000954 0.000000
0.000823 0.000952 0.000000
0.000833 0.000947 0.000000
0.000848 0.000952 0.000000
0.000875 0.000949 0.000000
0.000890 0.000951 0.000000
0.000898 0.000943 0.000000
0.000906 0.000941 0.000000
0.000030 0.000300 0.000000
0.000030 0.000310 0.000000
0.000030 0.000320 0.000000
0.000031 0.000331 0.000000
0.000030 0.000340 0.000000
0.000030 0.000350 0.000000
0.000030 0.000360 0.000000
0.000031 0.000370 0.000000
0.000031 0.000380 0.000000
0.000031 0.000390 0.000000
0.000031 0.000400 0.000000
0.000031 0.000411 0.000000
0.000031 0.000420 0.000000
0.000032 0.000430 0.000000
0.000031 0.000440 0.000000
0.000030 0.000450 0.000000
0.000031 0.000459 0.000000
0.000036 0.000473 0.000000
0.000029 0.000478 0.000000
0.000033 0.000488 0.000000
0.000032 0.000497 0.000000
0.000063 0.000500 0.000000
0.000801 0.000945 0.000000
0.000817 0.000938 0.000000
0.000845 0.000943 0.000000
0.000854 0.000937 0.000000
0.000859 0.000948 0.000000
0.000865 0.000941 0.000000
0.000875 0.000940 0.000000
0.000883 0.000940 0.000000
0.000906 0.000933 0.000000
0.000040 0.000300 0.000000
0.000040 0.000310 0.000000
0.000041 0.000320 0.000000
0.000040 0.000329 0.000000
0.000040 0.000340 0.000000
0.000041 0.000351 0.000000
0.000041 0.000359 0.000000
0.000040 0.000370 0.000000
0.000041 0.000380 0.000000
0.000040 0.000390 0.000000
0.000042 0.000399 0.000000
0.000040 0.000410 0.000000
0.000042 0.000419 0.000000
0.000040 0.000431 0.000000
0.000042 0.000439 0.000000
0.000043 0.000450 0.000000
0.000043 0.000460 0.000000
0.000037 0.000469 0.000000
0.000045 0.000477 0.000000
0.000043 0.000496 0.000000
0.000040 0.000498 0.000000
0.000614 0.000739 0.000000
0.000810 0.000937 0.000000
0.000828 0.000938 0.000000
0.000835 0.000934 0.000000
0.000843 0.000941 0.000000
0.000865 0.000933 0.000000
0.000887 0.000930 0.000000
0.000886 0.000920 0.000000
0.000896 0.000934 0.000000
0.000905 0.000924 0.000000
0.000050 0.000300 0.000000
0.000050 0.000310 0.000000
0.000050 0.000319 0.000000
0.000049 0.000331 0.000000
0.000052 0.000340 0.000000
0.000050 0.000348 0.000000
0.000051 0.000360 0.000000
0.000051 0.000371 0.000000
0.000052 0.000379 0.000000
0.000050 0.000390 0.000000
0.000052 0.000400 0.000000
0.000049 0.000411 0.000000
0.000053 0.000420 0.000000
0.000051 0.000430 0.000000
0.000054 0.000440 0.000000
0.000047 0.000450 0.000000
0.000054 0.000458 0.000000
0.000053 0.000470 0.000000
0.000056 0.000482 0.000000
0.000049 0.000488 0.000000
0.000050 0.000498 0.000000
0.000797 0.000951 0.000000
0.000755 0.000932 0.000000
0.000823 0.000933 0.000000
0.000840 0.000923 0.000000
0.000853 0.000927 0.000000
0.000870 0.000926 0.000000
0.000861 0.000920 0.000000
0.000878 0.000928 0.000000
0.000895 0.000922 0.000000
0.000902 0.000913 0.000000
0.000060 0.000300 0.000000
0.000060 0.000310 0.000000
0.000060 0.000321 0.000000
0.000061 0.000329 0.000000
0.000060 0.000339 0.000000
0.000059 0.000352 0.000000
0.000062 0.000359 0.000000
0.000059 0.000368 0.000000
0.000061 0.000380 0.000000
0.000060 0.000391 0.000000
0.000063 0.000400 0.000000
0.000059 0.000409 0.000000
0.000063 0.000418 0.000000
0.000058 0.000430 0.000000
0.000065 0.000439 0.000000
0.000061 0.000450 0.000000
0.000065 0.000460 0.000000
0.000055 0.000472 0.000000
0.000064 0.000475 0.000000
0.000068 0.000486 0.000000
0.000058 0.000496 0.000000
0.000787 0.000949 0.000000
0.000801 0.000936 0.000000
0.000818 0.000921 0.000000
0.000831 0.000922 0.000000
0.000847 0.000915 0.000000
0.000854 0.000909 0.000000
0.000882 0.000910 0.000000
0.000873 0.000916 0.000000
0.000892 0.000910 0.000000
0.000900 0.000904 0.000000
0.000070 0.000300 0.000000
0.000070 0.000310 0.000000
0.000070 0.000320 0.000000
0.000070 0.000330 0.000000
0.000070 0.000341 0.000000
0.000071 0.000349 0.000000
0.000071 0.000359 0.000000
0.000068 0.000374 0.000000
0.000078 0.000376 0.000000
0.000069 0.000389 0.000000
0.000073 0.000400 0.000000
0.000069 0.000412 0.000000
0.000074 0.000421 0.000000
0.000069 0.000430 0.000000
0.000075 0.000439 0.000000
0.000066 0.000451 0.000000
0.000077 0.000459 0.000000
0.000073 0.000470 0.000000
0.000076 0.000485 0.000000
0.000068 0.000495 0.000000
0.000076 0.000496 0.000000
0.000609 0.000715 0.000000
0.000789 0.000935 0.000000
0.000811 0.000926 0.000000
0.000832 0.000905 0.000000
0.000848 0.000924 0.000000
0.000863 0.000909 0.000000
0.000873 0.000909 0.000000
0.000870 0.000898 0.000000
0.000889 0.000901 0.000000
0.000898 0.000894 0.000000
0.000080 0.000300 0.000000
0.000080 0.000310 0.000000
0.000080 0.000320 0.000000
0.000080 0.000330 0.000000
0.000081 0.000340 0.000000
0.000080 0.000351 0.000000
0.000082 0.000363 0.000000
0.000075 0.000368 0.000000
0.000079 0.000384 0.000000
0.000078 0.000392 0.000000
0.000088 0.000396 0.000000
0.000079 0.000408 0.000000
0.000084 0.000417 0.000000
0.000079 0.000429 0.000000
0.000087 0.000444 0.000000
0.000077 0.000447 0.000000
0.000086 0.000463 0.000000
0.000074 0.000470 0.000000
0.000087 0.000473 0.000000
0.000085 0.000482 0.000000
0.000084 0.000495 0.000000
0.000777 0.000946 0.000000
0.000750 0.000937 0.000000
0.000817 0.000908 0.000000
0.000828 0.000918 0.000000
0.000842 0.000908 0.000000
0.000848 0.000898 0.000000
0.000858 0.000899 0.000000
0.000879 0.000897 0.000000
0.000887 0.000891 0.000000
0.000895 0.000884 0.000000
0.000090 0.000300 0.000000
0.000090 0.000310 0.000000
0.000090 0.000320 0.000000
0.000090 0.000330 0.000000
0.000091 0.000340 0.000000
0.000090 0.000350 0.000000
0.000090 0.000358 0.000000
0.000091 0.000368 0.000000
0.000091 0.000379 0.000000
0.000091 0.000388 0.000000
0.000085 0.000405 0.000000
0.000093 0.000409 0.000000
0.000089 0.000425 0.000000
0.000095 0.000425 0.000000
0.000088 0.000436 0.000000
0.000097 0.000456 0.000000
0.000086 0.000453 0.000000
0.000097 0.000471 0.000000
0.000106 0.000480 0.000000
0.000089 0.000494 0.000000
0.000094 0.000495 0.000000
0.000619 0.000757 0.000000
0.000784 0.000930 0.000000
0.000772 0.000935 0.000000
0.000802 0.000927 0.000000
0.000829 0.000896 0.000000
0.000854 0.000890 0.000000
0.000867 0.000891 0.000000
0.000874 0.000886 0.000000
0.000884 0.000882 0.000000
0.000893 0.000875 0.000000
0.000100 0.000300 0.000000
0.000100 0.000310 0.000000
0.000101 0.000319 0.000000
0.000100 0.000331 0.000000
0.000100 0.000340 0.000000
0.000101 0.000350 0.000000
0.000100 0.000361 0.000000
0.000100 0.000372 0.000000
0.000100 0.000380 0.000000
0.000100 0.000391 0.000000
0.000100 0.000400 0.000000
0.000104 0.000407 0.000000
0.000101 0.000418 0.000000
0.000100 0.000436 0.000000
0.000110 0.000443 0.000000
0.000097 0.000445 0.000000
0.000108 0.000460 0.000000
0.000098 0.000467 0.000000
0.000095 0.000481 0.000000
0.000106 0.000491 0.000000
0.000101 0.000494 0.000000
0.000712 0.000910 0.000000
0.000720 0.000916 0.000000
0.000744 0.000933 0.000000
0.000828 0.000906 0.000000
0.000842 0.000896 0.000000
0.000844 0.000886 0.000000
0.000865 0.000882 0.000000
0.000857 0.000877 0.000000
0.000880 0.000875 0.000000
0.000889 0.000866 0.000000
0.000110 0.000300 0.000000
0.000110 0.000310 0.000000
0.000109 0.000321 0.000000
0.000111 0.000329 0.000000
0.000110 0.000339 0.000000
0.000110 0.000350 0.000000
0.000110 0.000359 0.000000
0.000113 0.000368 0.000000
0.000111 0.000378 0.000000
0.000111 0.000390 0.000000
0.000112 0.000399 0.000000
0.000110 0.000414 0.000000
0.000116 0.000422 0.000000
0.000107 0.000427 0.000000
0.000111 0.000433 0.000000
0.000106 0.000449 0.000000
0.000114 0.000461 0.000000
0.000111 0.000470 0.000000
0.000116 0.000480 0.000000
0.000111 0.000493 0.000000
0.000119 0.000491 0.000000
0.000666 0.000858 0.000000
0.000625 0.000778 0.000000
0.000778 0.000925 0.000000
0.000801 0.000915 0.000000
0.000791 0.000911 0.000000
[...]
POINT_DATA 6231
SCALARS density float 1
LOOKUP_TABLE default
4413.889555
4425.337993
4422.318887
4425.279317
4425.860909
4424.771517
4423.679101
4423.903620
4428.296694
4429.071999
4425.197628
4429.489161
4427.324511
4428.447760
4430.654582
4440.121098
4423.311020
4432.397657
4412.576554
4424.176159
4411.237213
4422.169220
4426.988992
4431.395145
4441.692753
4421.173614
4397.637972
4430.770708
4450.855111
4453.509599
4417.781206
4414.955120
4420.562575
4428.637192
4426.636911
4418.820981
4429.350121
4431.249621
4432.272761
4428.040087
4430.239767
4427.234893
4434.992608
4427.588172
4438.897112
4416.866187
4425.924887
4409.579115
4443.690914
4460.838367
4460.012252
4416.167824
4408.523871
4414.559907
4435.205177
4505.920234
4391.115935
4399.436339
4426.195761
4402.523927
4456.729445
4443.572046
4419.053676
4432.781764
4427.623738
4421.149935
4435.879950
4428.591250
4414.349561
4431.148414
4417.849976
4430.853006
4428.808966
4427.980528
4416.241450
4436.180988
4415.146671
4477.825567
4399.454211
4453.460158
4352.062145
4450.194221
4421.042097
4420.208374
4426.937426
4411.954799
4509.081684
4327.940908
4368.113686
4416.632858
4420.553057
4422.226265
4398.785969
4428.445816
4427.851098
4418.783831
4433.296171
4434.210072
4426.650465
4434.256551
4438.681469
4426.116348
4438.621418
4408.601141
4444.671171
4424.636177
4446.105033
4405.316869
4429.237558
4391.527345
4456.367844
4368.841450
4554.096397
4371.712243
4430.240722
4455.561267
4436.391858
4484.500501
4341.559048
4490.649266
4467.525181
4406.921351
4480.042207
4439.593884
4428.434107
4426.458412
4437.814399
4441.523687
4415.088264
4438.513157
4432.795223
4420.247992
4419.395706
4435.241158
4416.570194
4445.186112
4401.809834
4442.559575
4418.705361
4448.849857
4393.284171
4506.135885
4311.591431
4419.507997
4384.203002
4439.958278
4420.406808
4430.528843
4423.111124
4480.022683
4425.390799
4405.421708
4489.122247
4440.291998
4414.088532
4428.237559
4431.936106
4421.166683
4420.740126
4441.858288
4442.314331
4410.422858
4452.956225
4432.092076
4427.317573
4427.741328
4431.679618
4425.390222
4450.785817
4372.494785
4480.611034
4361.232838
4470.655714
4357.738934
4537.557548
4382.591235
4445.321346
4427.626724
4445.822198
4407.697022
4440.859237
4445.073115
4390.773351
4401.940947
4415.698375
4415.887166
4431.650678
4433.787052
4428.475240
4445.759459
4424.720210
4422.787739
4432.463103
4430.561271
4393.875001
4442.711555
4422.106812
4436.359933
4411.332999
4433.744556
4422.534238
4462.700135
4406.995915
4516.941171
4382.991031
4483.714544
4432.175060
4417.190295
4398.296241
4416.732829
4461.258903
4467.011904
4425.601844
4402.807852
4419.868938
4423.127083
4426.268617
4426.349501
4422.985209
4424.086846
4421.419628
4422.417687
4442.674518
4422.903679
4419.466919
4411.944849
4448.907079
4387.520170
4435.003314
4416.468941
4439.013019
4431.854413
4452.113427
4441.663548
4447.916082
4447.944997
4411.622396
4390.983106
4439.876054
4451.568054
4436.444371
4451.029148
4436.159228
4429.542515
4454.096257
4442.853597
4450.011960
4410.882018
4425.508932
4429.664967
4435.069672
4410.589057
4433.598581
4420.906088
4413.883213
4454.267276
4435.318795
4425.164362
4407.947199
4445.165873
4400.370993
4438.983604
4467.983355
4389.879288
4458.440295
4447.496226
4368.357423
4462.430813
4414.637129
4434.675086
4415.725914
4412.648804
4440.275047
4370.975288
4472.791507
4419.638216
4402.065993
4435.411588
4436.751474
4428.930521
4426.065124
4426.260942
4426.915216
4424.621615
4424.044888
4451.449426
4428.637300
4426.187890
4446.920288
4448.355908
4402.977824
4432.850010
4454.197966
4413.874707
4377.962653
4437.513650
4434.627653
4424.357246
4425.934363
4416.383575
4426.407951
4431.342623
4424.118391
4474.969839
4400.697476
4393.517590
4443.013998
4434.180644
4432.240938
4415.606004
4427.800013
4426.367280
4429.810172
4435.431366
4429.621452
4427.760156
4417.951695
4432.010206
4442.531480
4402.010672
4437.575433
4446.750042
4432.156403
4384.559351
4442.097716
4449.429801
4422.948202
4461.626053
4415.322474
4439.300410
4420.274943
4422.921943
4430.413020
4421.820261
4440.297609
4455.790428
4370.867919
4403.218739
4472.249485
4451.750465
4420.596133
4427.498419
4437.102327
4432.861701
4422.484931
4425.386124
4437.153826
4432.038397
4436.230013
4418.341617
4440.390005
4417.013753
4426.695475
4401.673020
4444.953750
4435.288115
4437.468655
4459.254703
4395.791477
4464.114099
4399.522399
4410.794074
4436.047946
4434.914016
4438.064605
4402.165502
4436.141992
4467.234582
4453.280707
4410.166910
4423.983458
4454.017829
4436.971043
4429.165083
4418.189615
4441.122425
4428.216573
4421.499201
4416.652084
4439.122646
4401.111780
4449.271345
4404.361579
4428.255006
4461.618359
4435.348064
4433.508320
4380.778638
4449.429298
4407.159076
4424.903217
4432.272595
4388.204106
4438.588633
4420.800921
4429.543078
4450.000082
4453.583618
4419.494703
4339.825516
4460.804472
4389.745083
4416.589568
4432.565036
4437.098517
4430.114052
4436.426333
4418.085330
4441.209223
4431.416174
4435.127875
4421.592216
4430.534096
4437.529091
4399.821449
4420.480574
4434.451399
4412.177775
4442.242559
4409.709829
4438.354431
4513.213943
4416.456321
4439.742330
4435.404676
4417.286732
4419.465828
4434.456229
4426.881036
4442.347208
4474.288857
4474.464039
4489.985894
4452.355138
4431.666488
4435.268722
4430.623929
4418.225635
4435.313439
4419.929560
4432.290437
4409.385129
4443.335340
4410.664882
4430.580084
4440.413709
4437.819878
4418.803859
4453.551268
4378.047782
4425.835154
4500.811518
4555.236237
4383.551424
4379.868066
4411.938654
4419.395747
4445.962480
4449.331643
4382.194896
4455.149352
4407.602148
4401.158421
4405.463154
4449.146064
4434.092858
4432.250399
4432.525610
4434.964273
4433.041121
4415.766086
4429.599163
4443.639717
4425.529800
4408.406095
4453.702543
4412.011433
4436.443455
4408.488539
4462.680164
4408.861612
4499.863869
4353.678288
4322.309907
4480.645951
4398.927983
4412.099557
4439.771272
4429.241216
4490.184229
4443.945523
4416.198769
4440.714458
4391.012275
4426.117037
4412.223360
4433.317503
4430.053906
4432.542712
4420.389606
4432.145267
4431.705053
4413.101559
4409.953150
4392.301796
4452.702147
4438.455667
4403.268798
4456.663724
4402.865427
4422.227773
4459.738375
4391.258701
4484.430032
4484.515252
4419.598180
4404.755031
4424.727714
4448.784321
4416.437321
4378.619926
4455.934440
4448.228655
4418.743469
4400.457687
4432.258087
4429.251459
4434.445185
4427.876758
4434.237631
4437.013287
4433.284005
4426.195872
4431.058057
4438.047946
4429.061123
4424.813329
4444.284741
4428.782229
4417.113431
4449.406488
4432.243290
4430.767996
4392.497068
4490.199682
4353.726730
4368.353377
4426.980601
4424.660535
4435.984274
4443.369840
4400.583197
4437.550511
4425.314628
4442.376565
4467.263999
4437.211046
4439.267598
4432.487085
4430.449955
4428.064481
4434.926828
4427.699898
4431.081671
4425.590258
4412.954070
4441.805338
4447.711016
4397.362095
4441.619656
4410.820637
4429.802909
4386.011832
4465.308952
4355.331739
4464.753530
4399.998441
4447.291958
4392.727571
4430.386878
4430.214533
4444.785376
4459.975849
4402.758637
4460.539803
4454.778362
4411.827782
4411.599200
4422.162647
4431.904556
4427.662991
4430.053469
4424.617753
4436.226327
4434.175330
4430.533561
4444.277690
4406.406338
4420.381218
4425.690265
4445.838720
4420.387150
4435.375571
4441.849637
4455.107563
4380.971446
4448.619678
4431.201217
4573.369887
4374.543376
4473.209373
4423.268245
4437.558594
4430.653915
4391.242269
4452.804306
4401.958516
4408.173512
4426.736923
4415.163665
4431.220887
4431.738201
4434.651589
4431.337573
4424.651347
4429.483745
4414.460260
4434.560669
4433.132718
4421.325254
4434.062003
4414.194384
4411.084115
4431.654242
4409.333653
4463.789884
4455.176445
4465.172283
4371.339289
4379.413622
4448.914354
4410.217630
4422.468548
4459.010803
4421.309437
4393.013444
4420.591775
4442.039222
4463.046185
4407.976722
4407.905844
4433.872004
4432.335174
4424.889521
4432.144207
4427.950654
4441.565169
4428.746900
4420.553865
4423.412619
4432.037138
4414.268504
4440.609796
4444.712351
4430.841692
4393.795278
4451.688415
4419.426894
4443.552158
4400.879096
4462.406524
4413.088538
4444.967401
4413.827527
4419.877199
4437.415718
4419.444585
4402.404014
4449.196937
4356.425078
4422.015800
4447.587736
4429.408834
4427.383957
4431.996290
4438.833065
4421.294181
4414.413856
4430.548327
4444.628290
4411.105597
4435.063354
4423.782144
4417.186521
4458.923073
4396.742187
4406.363738
4466.401146
4376.924643
4394.769730
4436.877268
4447.082754
4421.683191
4424.676509
4433.471869
4457.200592
4406.681023
4441.408252
4473.891225
4375.295995
4473.479985
4368.470680
4423.603145
4427.755832
4433.590974
4432.791291
4418.415165
4430.206783
4451.377462
4417.144282
4412.523253
4418.097257
4446.605003
4397.624985
4433.603469
4432.151174
4434.315173
4444.824578
4403.412313
4447.241153
4427.827921
4403.504018
4441.457771
4422.859566
4418.208939
4470.352175
4421.138078
4438.613094
4459.946058
4439.419051
4361.769108
4440.164726
4414.827140
4456.158646
4429.534129
4427.124430
4422.777832
4434.528690
4426.586905
4409.050368
4429.260927
4436.486177
4425.918170
4425.284632
4427.491360
4443.280320
4415.752810
4410.104622
4404.586347
4429.666907
4398.080157
4465.124123
4437.823714
4492.043740
4409.990473
4413.708159
4451.395552
4418.414830
4440.746671
4438.591490
4465.690619
4417.552148
4460.348480
4433.410040
4439.642851
4430.081780
4433.338566
4429.917683
4433.586916
4423.743120
4431.360333
4430.778286
4402.510282
4425.820641
4428.097581
4434.259131
4423.820454
4429.330829
4422.185276
4448.717301
4456.928381
4402.066127
4456.899156
4361.819593
4417.033369
4430.406321
4407.773563
4457.088609
4449.544965
4417.626929
4414.029498
4420.505256
4423.978897
4404.325714
4421.455171
4416.467580
4426.919019
4433.965825
4421.734911
4426.610993
4419.353883
4435.678867
4407.863786
4439.900941
4443.087922
4410.113138
4412.625885
4450.066507
4404.971279
4426.548365
4410.363808
4426.061193
4421.583615
4467.932211
4411.824309
4448.436537
4418.469317
4531.803623
4426.488833
4366.418248
4420.899284
4444.154561
4420.083546
4444.965692
4496.152938
4423.403157
4450.656682
4430.391650
4431.689199
4424.556496
4443.078832
4431.044542
4426.896751
4428.104127
4431.737093
4387.435178
4446.907066
4431.965048
4424.718904
4412.817700
4449.466934
4416.899064
4471.131287
4398.141082
4474.961339
4402.269675
4431.726074
4415.554227
4422.481531
4429.456994
4430.515967
4418.851019
4444.752253
4414.259933
4436.141910
4389.589850
4382.026290
4438.268730
4426.327886
4431.844933
4429.549560
4421.189435
4421.854842
4445.070578
4420.454185
4421.521611
4440.878713
4440.018725
4394.700032
4440.088084
4432.871459
4438.200231
4422.372607
4426.390091
4407.946064
4453.557983
4426.884385
4432.218687
4409.586437
4429.050309
4420.321430
4425.694431
4494.312782
4399.585751
4410.298729
4439.073578
4390.180192
4434.861420
4406.569578
4425.842128
4430.336454
4426.208665
4434.947383
4448.664281
4410.113312
4429.086080
4436.501130
4400.163091
4416.060036
4442.461233
4433.326912
4423.293459
4399.624349
4452.656695
4437.278823
4395.727519
4367.565049
4387.866270
4463.655717
4444.148690
4410.613698
4398.710031
4401.479532
4446.803765
4425.353887
4436.617158
4463.701472
4460.801577
4429.376554
4461.933834
4434.869875
4433.855836
4427.482838
4425.629789
4417.440322
4442.035674
4438.473792
4413.656057
4439.460666
4420.942994
4436.117131
4395.729578
4457.969003
4436.291310
4404.925255
4438.747247
4410.738504
4494.047059
4457.239367
4438.039352
4446.204496
4419.907192
4449.348279
4421.280585
4440.690890
4434.672370
4423.020084
4431.914800
4424.326524
4416.190708
4415.551028
4429.101755
4427.436555
4435.800130
4439.724420
4431.615870
4434.875872
4412.517743
4423.799831
4452.439332
4403.137740
4429.961879
4447.283380
4418.548362
4426.591429
4439.249841
4447.626658
4381.729044
4448.840237
4390.342777
4366.048322
4433.433948
4435.871907
4420.401874
4394.064396
4475.398122
4379.931970
4421.889197
4424.961850
4461.747137
4365.107602
4418.662129
4432.908215
4430.541686
4429.852504
4416.385024
4435.793901
4423.629704
4438.957221
4440.624416
4389.916638
4452.341888
4428.164602
4423.413445
4418.970644
4446.386572
4407.306015
4453.544435
4412.376368
4387.239166
4478.121974
4470.291954
4449.683195
4401.223070
4403.035633
4434.155233
4446.726262
4429.510551
4371.693081
4459.810810
4428.575272
4451.741724
4424.469666
4438.243293
4433.116312
4432.171309
4434.241148
4427.238210
4434.456337
4400.016447
4420.450585
4433.419452
4439.755245
4391.576748
4451.119504
4429.407066
4441.673347
4413.003790
4426.308654
4441.023652
4462.777068
4343.825845
4473.539712
4457.471664
4416.247303
4495.852089
4430.784141
4451.754717
4461.076813
4445.986245
4428.639815
4392.965319
4408.828228
4438.101193
4436.261513
4423.922590
4420.921375
4424.719282
4415.873864
4443.161970
4406.861115
4451.766978
4401.335816
4420.030191
4421.377500
4442.750469
4400.972494
4432.789828
4402.119863
4439.042529
4385.892479
4442.290443
4314.401550
4501.375814
4491.470298
4425.578928
4405.783084
4523.702543
4379.016751
4441.354764
4389.859582
4468.027063
4358.690905
4426.613015
4441.402258
4428.731077
4436.927998
4435.891731
4429.988476
4435.577308
4428.386902
4434.616897
4410.997515
4425.689130
4437.475779
4414.418058
4410.392893
4416.505088
4446.248528
4407.374331
4465.179791
4375.830588
4473.687786
4461.409372
4507.914932
4423.304574
4418.699496
4361.782082
4422.795832
4415.353794
4430.072489
4455.422642
4466.605940
4441.632705
4380.118352
4454.070261
4424.400816
4427.552415
4430.306415
4417.020350
4427.436872
4419.253154
4432.875310
4426.380946
4423.755069
4416.575269
4426.174318
4443.626725
4411.520866
4436.524189
4416.910597
4428.772779
4430.804422
4446.963308
4444.058087
4500.300081
4648.665984
4420.936777
4515.726457
4413.310488
4418.120039
4469.304068
4389.517879
4418.149267
4447.741652
4435.344301
4415.624032
4428.568262
4424.390557
4428.588464
4440.862511
4423.726653
4420.468492
4434.997884
4439.243628
4425.221490
4456.744647
4431.160984
4422.627736
4417.118783
4430.274637
4417.566751
4432.974499
4429.538685
4403.232995
4411.437733
4428.103858
4390.472447
4416.059143
4418.040202
4410.021758
4429.819655
4459.136460
4365.582358
4368.415141
4495.880454
4463.058675
4414.148104
4420.019370
4434.890358
4418.908186
4414.623257
4433.122829
4441.587131
4403.733176
4432.209227
4427.855346
4402.821975
4416.293857
4427.312983
4433.376490
4438.154316
4421.287928
4447.976680
4382.074524
4445.836617
4455.972221
4456.084777
4427.104855
4474.151278
4420.821277
4421.987961
4422.178877
4460.328492
4476.957126
4437.189787
4376.389249
4423.647151
4396.712579
4425.952413
4433.955595
4418.418178
4447.215028
4430.155248
4405.751386
4424.307517
4446.251591
4403.592095
4447.883416
4443.656735
4422.023376
4420.011548
4404.335546
4440.449542
4420.635904
4448.266214
4365.924962
4441.364025
4480.280792
4419.747790
4443.075753
4419.475631
4420.584041
4470.028495
4456.362504
4417.737198
4532.531563
4369.421806
4451.824285
4420.513828
4428.022334
4430.693378
4421.054848
4432.579938
4418.635423
4443.105249
4421.231395
4426.598929
4444.022406
4437.414708
4384.545993
4393.421365
4427.969027
4426.625162
4416.794374
4430.743073
4390.198797
4418.307661
4424.030068
4459.285875
4433.195212
4386.084441
4442.109821
4441.639389
4474.231585
4432.491341
4467.473506
4416.224230
4353.788444
4392.297739
4419.911559
4421.589584
4424.776836
4434.770985
4417.771473
4432.848609
4425.629059
4413.785161
4429.014103
4431.129485
4408.952349
4419.396840
4459.133029
4415.201889
4424.389395
4421.170328
4430.697239
4469.134320
4397.807093
4417.995817
4442.784612
4415.386910
4423.172101
4473.648140
4375.544318
4372.571296
4485.763754
4418.757253
4391.707324
4457.850708
4464.239815
4415.159957
4429.603218
4419.967301
4427.715705
4422.448211
4443.038917
4411.233989
4432.825228
4401.176603
4418.581582
4439.188530
4416.672684
4429.176444
4424.875155
4440.200503
4398.224048
4452.277919
4382.511852
4431.450109
4361.789413
4428.668989
4427.472396
4465.326894
4382.749724
4460.781260
4433.607122
4444.909968
4391.704907
4388.364766
4471.229355
4355.656185
4418.741144
4424.126997
4421.390987
4435.045107
4427.359292
4411.639604
4449.354196
4436.657171
4441.842750
4433.350989
4420.902539
4414.845896
4414.362621
4448.210294
4407.890068
4430.056953
4417.364629
4397.566648
4449.003903
4447.718393
4466.738300
4433.442635
4408.842674
4468.512301
4418.074997
4483.393324
4461.365875
4460.849153
4471.493064
4456.080945
4411.541677
4413.110720
4424.223878
4429.458834
4422.962815
4421.628182
4438.009219
4403.630528
4422.380691
4442.010947
4407.630314
4426.202151
4426.932819
4449.398204
4387.408301
4439.475783
4435.190013
4394.666020
4411.920718
4416.995526
4390.896608
4463.952099
4450.897316
4434.449093
4340.379373
4449.807569
4413.499682
4386.838928
4457.172127
4405.621466
4453.265558
4429.098320
4405.227391
4422.306488
4425.237393
4431.088325
4412.015578
4441.201684
4424.052607
4422.501067
4413.980994
4406.906842
4441.882533
4425.851229
4421.795120
4441.077685
4434.267055
4463.698052
4448.123291
4394.385331
4451.607788
4406.817067
4441.536016
4415.292256
4397.893569
4438.878626
4416.422588
4447.322190
4436.597331
4424.797531
4395.920424
4441.921008
4382.972175
4464.633176
4424.433316
4429.412416
4435.174050
4428.625616
4405.497808
4449.690040
4437.950398
4434.142804
4424.833532
4440.415045
4429.307923
4428.925429
4393.645963
4418.299357
4415.838118
4449.027773
4428.374379
4480.220984
4416.008830
4350.060939
4405.924778
4465.824433
4449.370429
4408.893572
4459.313123
4443.105042
4454.452626
4358.980560
4429.859886
4414.448297
4362.784443
4437.025436
4432.630795
4411.082308
4427.238248
4436.059022
4415.047914
4411.094220
4427.528629
4426.119939
4417.083515
4415.748623
4437.318474
4438.431149
4449.887651
4414.179288
4415.612815
4465.674267
4413.252224
4381.624954
4538.113911
4385.380829
4424.865818
4519.022122
4421.446678
4439.722225
4424.846745
4448.841168
4459.685358
4478.567563
4396.671185
4432.597515
4427.069206
4430.724878
4438.372026
4437.469294
4403.624103
4426.267780
4424.957916
4416.743791
4418.837843
4430.933200
4420.214456
4411.180366
4403.429897
4441.326507
4424.117383
4428.742088
4474.826914
4453.600389
4393.191982
4433.056138
4493.487746
4492.082056
4452.496971
4423.889133
4473.493590
4442.805860
4397.448463
4446.784101
4468.643141
4435.275851
4481.951474
4427.779475
4437.026702
4422.971474
4429.001487
4428.984531
4434.452756
4433.341742
4414.996500
4406.241595
4427.341038
4444.001414
4429.963211
4439.196571
4428.897893
4414.780387
4445.585097
4399.774243
4400.630028
4436.631445
4448.261444
4663.525913
4543.021550
4448.715071
4492.084570
4468.162377
4458.163469
4438.825459
4385.728413
4362.415924
4343.447888
4376.229629
4430.341843
4442.753221
4405.933731
4428.976126
4435.572749
4414.067537
4437.157924
4434.114702
4433.192149
4429.692248
4419.471193
4415.984975
4427.994352
4416.102022
4434.225694
4420.232025
4420.991777
4445.806531
4418.400921
4425.173340
4449.506147
4412.426063
4451.589953
4422.947772
4465.171943
4437.307190
4430.429231
4430.153165
4476.359084
4427.472050
4449.558018
4428.358933
4415.573993
4441.386219
4427.039763
4405.702308
4439.155202
4412.739658
4401.340256
4414.962997
4440.761135
4425.105339
4456.689180
4418.307579
4419.357374
4432.411645
4427.736439
4434.446494
4420.348261
4400.327212
4406.042265
4385.574534
4483.584217
4445.024767
4466.989984
4393.669236
4420.577944
4436.374705
4394.567984
4454.885821
4396.223840
4418.858681
4436.205998
4423.501146
4427.945332
4449.357646
4440.662595
4403.951909
4441.819049
4415.171415
4431.187929
4411.063059
4418.713561
4426.794386
4414.481042
4441.777571
4417.867570
4444.395084
4444.583059
4459.990689
4479.235657
4377.378923
4436.337150
4396.929328
4480.474086
4371.059301
4440.117738
4464.381208
4396.225254
4450.549889
4425.352517
4425.069067
4383.437683
4419.941196
4436.074860
4412.701265
4394.204464
4433.115440
4429.733032
4460.424712
4444.697288
4403.883585
4429.924835
4437.532060
4412.545026
4427.215443
4423.334186
4401.844501
4410.926959
4412.029098
4456.287311