# vtk DataFile Version 2.0
mfree iwf
ASCII

DATASET UNSTRUCTURED_GRID
POINTS 6231 float
0.000000 0.000300 0.000000
0.000000 0.000310 0.000000
0.000000 0.000320 0.000000
0.000000 0.000330 0.000000
0.000000 0.000340 0.000000
0.000000 0.000350 0.000000
0.000000 0.000360 0.000000
0.000001 0.000370 0.000000
0.000001 0.000380 0.000000
0.000001 0.000390 0.000000
0.000001 0.000400 0.000000
0.000001 0.000410 0.000000
0.000001 0.000420 0.000000
0.000001 0.000430 0.000000
0.000001 0.000440 0.000000
0.000001 0.000450 0.000000
0.000002 0.000460 0.000000
0.000002 0.000470 0.000000
0.000002 0.000480 0.000000
0.000001 0.000492 0.000000
0.000006 0.000501 0.000000
0.001068 0.001116 0.000000
0.001142 0.001149 0.000000
0.001086 0.001122 0.000000
0.001155 0.001154 0.000000
0.001177 0.001158 0.000000
0.001226 0.001161 0.000000
0.001235 0.001159 0.000000
0.001246 0.001153 0.000000
0.001259 0.001150 0.000000
0.001289 0.001150 0.000000
0.000010 0.000300 0.000000
0.000010 0.000310 0.000000
0.000010 0.000320 0.000000
0.000010 0.000330 0.000000
0.000010 0.000340 0.000000
0.000010 0.000350 0.000000
0.000010 0.000360 0.000000
0.000011 0.000370 0.000000
0.000011 0.000380 0.000000
0.000011 0.000390 0.000000
0.000011 0.000400 0.000000
0.000011 0.000410 0.000000
0.000011 0.000420 0.000000
0.000011 0.000430 0.000000
0.000011 0.000440 0.000000
0.000011 0.000450 0.000000
0.000012 0.000460 0.000000
0.000011 0.000472 0.000000
0.000013 0.000478 0.000000
0.000009 0.000492 0.000000
0.000013 0.000498 0.000000
0.001196 0.001154 0.000000
0.001212 0.001155 0.000000
0.001219 0.001155 0.000000
0.001225 0.001153 0.000000
0.001241 0.001146 0.000000
0.001252 0.001144 0.000000
0.001266 0.001139 0.000000
0.001277 0.001141 0.000000
0.001283 0.001138 0.000000
0.001285 0.001146 0.000000
0.000020 0.000300 0.000000
0.000020 0.000310 0.000000
0.000020 0.000320 0.000000
0.000020 0.000330 0.000000
0.000021 0.000340 0.000000
0.000020 0.000350 0.000000
0.000021 0.000360 0.000000
0.000021 0.000370 0.000000
0.000020 0.000380 0.000000
0.000021 0.000390 0.000000
0.000020 0.000400 0.000000
0.000022 0.000410 0.000000
0.000020 0.000420 0.000000
0.000022 0.000430 0.000000
0.000020 0.000439 0.000000
0.000023 0.000451 0.000000
0.000021 0.000460 0.000000
0.000022 0.000470 0.000000
0.000021 0.000482 0.000000
0.000024 0.000494 0.000000
0.000020 0.000497 0.000000
0.001162 0.001144 0.000000
0.001192 0.001149 0.000000
0.001202 0.001151 0.000000
0.001207 0.001148 0.000000
0.001216 0.001141 0.000000
0.001231 0.001144 0.000000
0.001258 0.001137 0.000000
0.001272 0.001135 0.000000
0.001279 0.001127 0.000000
0.001286 0.001124 0.000000
0.000030 0.000300 0.000000
0.000030 0.000310 0.000000
0.000030 0.000320 0.000000
0.000031 0.000330 0.000000
0.000030 0.000340 0.000000
0.000031 0.000350 0.000000
0.000030 0.000360 0.000000
0.000031 0.000370 0.000000
0.000031 0.000380 0.000000
0.000031 0.000390 0.000000
0.000031 0.000400 0.000000
0.000031 0.000410 0.000000
0.000031 0.000420 0.000000
0.000032 0.000430 0.000000
0.000031 0.000440 0.000000
0.000030 0.000450 0.000000
0.000031 0.000459 0.000000
0.000036 0.000473 0.000000
0.000029 0.000478 0.000000
0.000032 0.000488 0.000000
0.000032 0.000497 0.000000
0.000063 0.000500 0.000000
0.001183 0.001145 0.000000
0.001200 0.001137 0.000000
0.001226 0.001134 0.000000
0.001235 0.001127 0.000000
0.001242 0.001139 0.000000
0.001245 0.001131 0.000000
0.001256 0.001128 0.000000
0.001263 0.001126 0.000000
0.001285 0.001116 0.000000
0.000040 0.000300 0.000000
0.000040 0.000310 0.000000
0.000040 0.000320 0.000000
0.000040 0.000331 0.000000
0.000040 0.000340 0.000000
0.000040 0.000349 0.000000
0.000040 0.000360 0.000000
0.000041 0.000370 0.000000
0.000041 0.000380 0.000000
0.000040 0.000390 0.000000
0.000041 0.000399 0.000000
0.000041 0.000410 0.000000
0.000042 0.000420 0.000000
0.000040 0.000430 0.000000
0.000042 0.000439 0.000000
0.000043 0.000450 0.000000
0.000042 0.000460 0.000000
0.000037 0.000469 0.000000
0.000045 0.000477 0.000000
0.000043 0.000496 0.000000
0.000040 0.000498 0.000000
0.000963 0.000977 0.000000
0.001191 0.001135 0.000000
0.001209 0.001133 0.000000
0.001214 0.001129 0.000000
0.001226 0.001136 0.000000
0.001246 0.001122 0.000000
0.001267 0.001116 0.000000
0.001264 0.001106 0.000000
0.001275 0.001119 0.000000
0.001282 0.001107 0.000000
0.000050 0.000300 0.000000
0.000050 0.000310 0.000000
0.000050 0.000320 0.000000
0.000050 0.000329 0.000000
0.000051 0.000339 0.000000
0.000050 0.000351 0.000000
0.000051 0.000360 0.000000
0.000050 0.000371 0.000000
0.000051 0.000380 0.000000
0.000050 0.000390 0.000000
0.000052 0.000400 0.000000
0.000049 0.000410 0.000000
0.000053 0.000419 0.000000
0.000051 0.000430 0.000000
0.000053 0.000440 0.000000
0.000047 0.000451 0.000000
0.000055 0.000458 0.000000
0.000052 0.000469 0.000000
0.000055 0.000483 0.000000
0.000048 0.000488 0.000000
0.000050 0.000498 0.000000
0.001182 0.001152 0.000000
0.001137 0.001140 0.000000
0.001202 0.001126 0.000000
0.001213 0.001113 0.000000
0.001232 0.001118 0.000000
0.001248 0.001115 0.000000
0.001239 0.001110 0.000000
0.001257 0.001115 0.000000
0.001272 0.001107 0.000000
0.001278 0.001096 0.000000
0.000060 0.000300 0.000000
0.000060 0.000310 0.000000
0.000060 0.000321 0.000000
0.000060 0.000331 0.000000
0.000061 0.000339 0.000000
0.000059 0.000349 0.000000
0.000061 0.000359 0.000000
0.000060 0.000369 0.000000
0.000062 0.000380 0.000000
0.000059 0.000391 0.000000
0.000063 0.000399 0.000000
0.000060 0.000410 0.000000
0.000064 0.000419 0.000000
0.000058 0.000430 0.000000
0.000065 0.000440 0.000000
0.000060 0.000449 0.000000
0.000065 0.000460 0.000000
0.000055 0.000471 0.000000
0.000064 0.000475 0.000000
0.000068 0.000485 0.000000
0.000058 0.000496 0.000000
0.001171 0.001151 0.000000
0.001181 0.001136 0.000000
0.001197 0.001118 0.000000
0.001216 0.001121 0.000000
0.001227 0.001108 0.000000
0.001229 0.001099 0.000000
0.001258 0.001097 0.000000
0.001249 0.001105 0.000000
0.001267 0.001096 0.000000
0.001275 0.001088 0.000000
0.000070 0.000300 0.000000
0.000070 0.000310 0.000000
0.000070 0.000319 0.000000
0.000070 0.000328 0.000000
0.000071 0.000340 0.000000
0.000070 0.000351 0.000000
0.000073 0.000359 0.000000
0.000068 0.000372 0.000000
0.000081 0.000376 0.000000
0.000069 0.000390 0.000000
0.000073 0.000400 0.000000
0.000068 0.000411 0.000000
0.000074 0.000421 0.000000
0.000068 0.000429 0.000000
0.000076 0.000438 0.000000
0.000066 0.000452 0.000000
0.000078 0.000458 0.000000
0.000073 0.000470 0.000000
0.000076 0.000486 0.000000
0.000068 0.000495 0.000000
0.000076 0.000496 0.000000
0.000954 0.000956 0.000000
0.001171 0.001139 0.000000
0.001191 0.001128 0.000000
0.001209 0.001097 0.000000
0.001226 0.001117 0.000000
0.001239 0.001099 0.000000
0.001250 0.001097 0.000000
0.001243 0.001088 0.000000
0.001263 0.001087 0.000000
0.001271 0.001078 0.000000
0.000080 0.000300 0.000000
0.000080 0.000310 0.000000
0.000081 0.000321 0.000000
0.000079 0.000332 0.000000
0.000082 0.000340 0.000000
0.000080 0.000350 0.000000
0.000082 0.000361 0.000000
0.000074 0.000370 0.000000
0.000075 0.000384 0.000000
0.000080 0.000391 0.000000
0.000089 0.000397 0.000000
0.000079 0.000410 0.000000
0.000086 0.000417 0.000000
0.000078 0.000431 0.000000
0.000086 0.000445 0.000000
0.000076 0.000448 0.000000
0.000084 0.000464 0.000000
0.000074 0.000470 0.000000
0.000088 0.000472 0.000000
0.000085 0.000483 0.000000
0.000084 0.000495 0.000000
0.001161 0.001150 0.000000
0.001132 0.001146 0.000000
0.001194 0.001106 0.000000
0.001205 0.001114 0.000000
0.001218 0.001104 0.000000
0.001223 0.001091 0.000000
0.001233 0.001091 0.000000
0.001253 0.001085 0.000000
0.001260 0.001078 0.000000
0.001267 0.001069 0.000000
0.000090 0.000300 0.000000
0.000090 0.000310 0.000000
0.000090 0.000319 0.000000
0.000090 0.000329 0.000000
0.000090 0.000340 0.000000
0.000090 0.000350 0.000000
0.000092 0.000361 0.000000
0.000089 0.000369 0.000000
0.000092 0.000379 0.000000
0.000089 0.000387 0.000000
0.000084 0.000404 0.000000
0.000093 0.000409 0.000000
0.000086 0.000425 0.000000
0.000096 0.000426 0.000000
0.000089 0.000435 0.000000
0.000097 0.000455 0.000000
0.000087 0.000453 0.000000
0.000098 0.000472 0.000000
0.000106 0.000480 0.000000
0.000089 0.000495 0.000000
0.000094 0.000495 0.000000
0.000972 0.000993 0.000000
0.001165 0.001132 0.000000
0.001153 0.001140 0.000000
0.001183 0.001125 0.000000
0.001200 0.001094 0.000000
0.001227 0.001082 0.000000
0.001240 0.001080 0.000000
0.001247 0.001075 0.000000
0.001256 0.001069 0.000000
0.001262 0.001060 0.000000
0.000100 0.000300 0.000000
0.000100 0.000310 0.000000
0.000100 0.000321 0.000000
0.000100 0.000331 0.000000
0.000101 0.000340 0.000000
0.000100 0.000350 0.000000
0.000101 0.000359 0.000000
0.000100 0.000370 0.000000
0.000101 0.000381 0.000000
0.000100 0.000391 0.000000
0.000100 0.000400 0.000000
0.000103 0.000407 0.000000
0.000101 0.000418 0.000000
0.000100 0.000436 0.000000
0.000108 0.000442 0.000000
0.000096 0.000445 0.000000
0.000107 0.000460 0.000000
0.000096 0.000465 0.000000
0.000094 0.000481 0.000000
0.000106 0.000491 0.000000
0.000101 0.000494 0.000000
0.001091 0.001126 0.000000
0.001101 0.001131 0.000000
0.001126 0.001143 0.000000
0.001206 0.001103 0.000000
0.001215 0.001089 0.000000
0.001217 0.001079 0.000000
0.001237 0.001071 0.000000
0.001228 0.001069 0.000000
0.001250 0.001063 0.000000
0.001257 0.001052 0.000000
0.000110 0.000300 0.000000
0.000110 0.000310 0.000000
0.000110 0.000319 0.000000
0.000110 0.000329 0.000000
0.000110 0.000340 0.000000
0.000111 0.000351 0.000000
0.000109 0.000360 0.000000
0.000113 0.000370 0.000000
0.000110 0.000378 0.000000
0.000110 0.000389 0.000000
0.000112 0.000399 0.000000
0.000111 0.000414 0.000000
0.000116 0.000423 0.000000
0.000105 0.000427 0.000000
0.000114 0.000432 0.000000
0.000107 0.000451 0.000000
0.000116 0.000462 0.000000
0.000110 0.000470 0.000000
0.000116 0.000480 0.000000
0.000111 0.000493 0.000000
0.000119 0.000492 0.000000
0.001036 0.001083 0.000000
0.000982 0.001012 0.000000
0.001158 0.001128 0.000000
0.001178 0.001115 0.000000
0.001167 0.001112 0.000000
[...]
POINT_DATA 6231
SCALARS density float 1
LOOKUP_TABLE default
4414.187650
4427.827087
4423.275781
4422.379426
4422.846206
4422.232848
4426.291153
4427.614193
4427.913993
4429.539372
4429.206689
4433.345357
4428.769752
4429.987835
4431.564434
4440.134955
4423.537514
4432.037967
4413.595037
4424.270985
4411.272142
4422.220131
4424.323454
4432.195756
4437.711310
4420.829012
4397.915681
4427.607281
4448.520373
4450.149291
4417.160068
4417.577518
4424.993815
4424.772817
4428.382499
4430.867257
4429.224610
4424.577131
4427.641209
4428.678087
4430.203673
4423.402616
4426.380694
4422.798876
4438.159652
4417.386898
4427.596841
4411.023335
4441.512037
4463.201774
4459.500278
4416.201037
4408.874341
4414.702806
4436.556715
4508.181468
4396.124876
4404.886182
4424.852467
4398.335242
4450.312651
4437.780326
4419.510547
4429.849452
4427.129776
4424.860232
4422.074089
4427.035603
4427.522062
4433.107457
4419.150992
4431.856272
4427.727934
4441.794271
4423.709342
4437.328454
4415.772282
4474.249430
4401.167090
4455.182123
4351.741994
4451.005657
4421.544168
4425.411051
4443.024439
4421.031674
4502.322218
4337.844034
4361.492016
4412.681467
4427.823293
4425.314108
4404.594616
4428.229289
4430.214192
4425.301377
4432.912907
4433.667870
4432.299271
4425.072799
4434.769818
4425.987058
4440.007284
4412.731145
4428.789565
4416.129164
4445.259174
4406.790296
4429.558755
4389.200610
4452.051644
4372.917416
4550.352787
4373.627044
4435.741479
4460.305073
4417.878115
4455.078958
4346.842385
4485.692631
4453.624712
4418.999411
4475.183224
4428.209812
4430.865755
4427.418598
4431.501500
4435.813112
4424.499833
4435.478614
4429.675675
4432.867320
4423.609315
4429.013261
4419.470420
4451.284379
4411.934108
4444.978138
4414.368490
4450.425539
4388.033511
4512.794206
4310.607475
4418.750754
4384.930541
4431.126632
4412.132558
4444.961252
4460.809505
4495.777620
4428.398539
4404.330354
4473.048088
4443.574571
4413.699316
4430.081045
4432.963309
4431.538332
4432.917071
4430.304042
4436.937038
4422.966246
4438.592133
4423.080962
4439.755917
4416.011783
4439.011641
4399.338174
4448.963211
4373.649131
4478.327047
4363.259088
4471.160791
4363.517302
4538.379261
4381.425756
4436.092106
4428.173786
4447.226023
4452.115481
4459.317173
4445.347327
4388.864385
4412.436563
4426.691188
4419.443448
4429.429918
4438.341858
4419.620439
4439.186158
4438.235727
4440.285308
4411.348581
4444.374851
4396.840716
4446.289159
4425.308214
4441.277239
4423.682321
4445.646317
4407.968904
4468.276003
4399.173300
4514.367917
4378.166923
4467.877037
4433.443733
4413.272282
4388.838143
4392.695336
4384.257892
4461.226004
4426.068552
4410.032648
4417.821898
4422.103814
4429.941824
4431.961287
4429.076657
4428.842006
4438.158656
4395.115467
4448.677866
4429.562733
4428.211933
4403.980600
4451.577904
4386.834603
4435.318007
4408.039556
4434.390755
4440.589188
4458.696448
4431.758783
4453.332764
4454.524500
4414.722330
4388.397556
4433.570280
4468.772379
4450.405923
4407.553761
4416.144514
4426.510311
4452.043563
4432.306127
4445.148351
4412.044709
4430.035481
4427.657620
4420.913070
4424.725290
4433.889713
4439.398380
4413.882246
4441.126838
4429.594195
4443.285819
4414.473940
4434.677438
4422.261060
4439.105083
4451.799202
4400.296584
4459.521984
4448.181591
4369.846105
4464.539566
4410.618936
4427.594593
4413.754035
4429.079171
4437.614893
4385.856254
4452.225590
4444.335832
4401.503607
4438.405701
4435.222453
4424.886833
4435.559999
4437.049600
4408.147731
4433.986081
4416.995980
4441.676898
4448.142181
4430.426076
4421.472087
4449.580835
4405.459428
4426.539556
4457.919056
4412.251530
4394.453418
4428.155226
4412.196296
4436.456545
4423.936390
4412.584896
4428.247894
4416.378102
4435.735928
4473.690001
4405.962762
4383.668314
4435.896159
4440.212123
4433.182917
4413.382538
4430.252635
4426.788273
4423.869290
4443.322888
4431.431821
4424.687507
4434.703997
4405.150371
4443.952159
4425.264735
4439.789642
4442.581491
4419.139180
4403.307551
4454.720994
4455.691872
4431.807948
4460.595962
4428.146494
4428.552518
4415.522898
4424.886236
4435.320348
4426.803924
4454.472886
4458.141544
4400.130708
4410.159898
4471.176138
4447.950923
4425.375499
4430.865070
4436.247701
4436.005643
4423.891477
4427.730604
4426.257004
4431.552989
4440.700306
4431.638063
4419.859409
4408.489153
4443.192525
4408.398338
4442.101557
4419.261655
4414.083457
4475.744404
4402.509672
4458.549768
4406.493799
4410.917970
4438.143196
4437.556977
4407.168054
4389.507617
4393.716800
4446.516002
4445.237942
4411.263570
4424.491390
4452.285758
4434.463144
4431.854954
4421.234222
4435.361333
4426.203977
4432.204813
4416.386145
4432.280515
4399.729091
4452.619381
4439.083746
4412.907419
4437.568886
4457.660426
4411.553914
4403.780348
4417.701236
4380.743959
4435.424962
4435.552744
4392.610931
4439.523914
4415.322346
4427.957162
4454.283731
4446.185630
4415.343882
4352.232408
4460.257541
4388.041578
4419.258088
4439.059619
4428.804883
4428.782057
4444.592253
4416.475383
4438.869344
4426.902655
4428.373262
4444.829041
4402.911631
4414.673723
4416.905049
4447.199872
4415.552068
4397.130916
4470.188411
4407.061168
4467.987493
4487.597862
4417.235548
4440.575241
4435.450917
4418.407299
4424.082128
4425.664017
4436.881262
4452.941100
4461.189062
4463.251243
4490.577875
4454.708563
4431.935768
4433.144239
4438.325199
4408.425971
4439.057173
4428.208810
4423.931385
4428.915014
4422.709973
4419.608669
4444.822257
4421.230575
4450.544733
4423.932701
4432.242639
4357.260184
4414.178244
4485.756930
4571.360315
4390.325640
4379.171962
4426.290510
4419.692630
4447.697871
4454.967662
4409.523228
4445.421771
4427.084992
4405.269205
4406.097166
4447.001247
4428.291576
4435.417730
4430.974504
4422.577472
4448.037735
4395.213987
4441.970588
4416.308089
4412.027665
4420.582873
4449.805693
4434.544720
4428.903947
4417.961849
4447.273420
4438.865950
4522.842684
4342.894711
4327.009946
4459.462574
4392.227581
4415.637826
4431.615974
4435.852026
4478.173463
4446.542488
4441.798316
4436.860242
4395.663104
4422.322787
4412.886566
4431.834153
4432.168389
4426.977554
4427.458568
4424.180420
4439.876866
4434.210798
4407.445081
4424.861311
4443.475363
4451.667297
4419.315320
4452.076099
4396.622586
4436.261235
4427.903931
4405.681716
4486.072309
4471.408883
4422.089731
4406.246127
4427.710910
4451.036781
4406.966685
4369.016239
4461.911231
4468.047111
4422.232083
4404.590924
4432.562452
4429.622221
4432.910660
4423.997389
4435.592195
4442.246374
4428.287212
4432.291686
4387.098447
4440.795984
4445.308568
4412.880229
4429.624120
4429.492927
4410.547363
4445.923181
4424.719883
4432.063968
4398.825249
4470.645153
4379.229092
4394.327125
4419.229999
4422.706438
4438.576870
4440.849275
4398.106931
4470.154453
4440.734781
4397.537383
4465.444861
4425.596688
4438.966044
4429.062149
4430.221913
4427.941511
4426.569070
4421.679738
4430.019649
4439.788019
4412.309637
4417.457469
4440.356933
4435.099023
4439.343369
4439.619946
4423.258610
4410.182755
4451.758582
4388.147879
4434.793520
4422.746710
4436.730216
4387.729585
4423.253453
4434.026541
4437.248608
4443.051796
4418.159247
4474.125819
4474.268463
4412.903702
4422.848514
4420.751734
4425.455893
4430.157243
4424.648539
4421.790211
4443.908607
4404.681505
4448.795931
4413.875167
4436.740530
4422.444770
4416.552020
4417.896004
4434.778612
4417.155316
4422.651505
4447.463260
4381.419143
4469.433834
4426.472673
4552.812871
4377.683305
4466.309854
4419.156874
4435.498477
4445.013264
4380.548160
4463.419213
4393.937989
4411.868986
4417.407534
4421.460120
4429.050585
4430.945737
4431.461225
4425.023361
4420.256425
4449.478143
4403.677964
4425.324789
4384.424268
4437.478930
4451.529523
4434.568544
4426.644883
4439.506735
4434.327278
4431.830528
4467.386829
4473.513071
4388.969636
4385.273310
4436.764327
4417.029833
4431.256101
4461.434337
4438.800653
4405.560647
4429.058126
4452.163804
4460.318790
4423.773914
4410.329727
4433.807806
4426.551563
4425.936520
4440.597707
4412.125359
4446.816003
4410.594818
4426.281437
4431.531227
4425.501074
4415.506871
4420.985946
4457.407835
4425.713477
4393.193745
4470.048593
4423.221158
4401.667092
4396.197401
4460.925435
4415.007725
4450.005712
4419.844636
4431.537349
4435.379298
4389.539974
4375.151709
4451.706776
4355.856050
4425.486282
4443.139018
4429.155329
4433.759459
4428.010204
4433.289456
4429.039259
4400.326228
4441.912907
4426.668032
4407.662523
4441.907316
4398.151565
4437.692202
4455.850695
4416.455426
4393.824246
4454.158895
4416.266125
4416.595606
4453.318363
4451.280708
4429.431662
4424.042901
4418.559667
4456.583043
4408.601237
4430.383634
4475.516955
4341.210856
4487.024363
4388.492242
4419.349927
4426.385628
4429.235208
4431.388309
4411.832131
4439.678639
4442.187393
4424.926984
4417.486773
4408.711802
4437.080532
4422.891167
4439.381873
4395.269157
4438.422438
4431.990013
4417.425565
4414.854419
4446.796581
4399.656768
4433.064771
4424.540067
4410.206666
4436.839692
4421.360919
4441.247130
4463.260923
4428.278273
4401.191059
4447.206998
4436.933827
4444.366658
4426.474478
4424.857520
4434.849181
4440.302130
4404.960911
4423.582363
4412.687520
4441.294562
4439.220489
4425.131372
4433.143421
4434.606417
4440.086373
4452.906275
4385.134191
4454.461453
4400.178057
4457.048157
4435.535661
4472.072304
4412.422574
4422.312623
4458.834134
4419.127150
4434.524686
4452.353166
4425.662467
4463.381224
4422.434058
4420.455347
4433.519030
4434.655620
4441.234882
4409.795122
4438.694890
4435.612489
4436.837369
4437.916587
4418.706242
4410.902449
4446.630174
4437.078845
4440.084810
4437.426626
4428.007271
4434.432633
4432.381217
4405.902385
4448.864601
4362.754345
4427.505333
4431.269552
4415.796252
4458.018628
4436.041917
4429.518398
4394.709502
4447.092461
4423.105098
4447.591534
4410.257572
4419.929189
4424.026816
4438.943761
4419.235522
4433.182354
4407.573911
4434.264544
4406.677186
4453.742006
4433.969133
4438.471627
4405.763651
4464.094034
4401.922018
4405.287407
4395.194683
4449.768422
4432.378078
4460.019086
4421.168600
4436.145020
4428.532137
4432.642285
4422.934748
4397.374665
4422.778152
4445.919173
4415.514945
4409.071880
4470.755594
4408.235639
4442.580651
4425.581389
4432.269632
4431.791706
4438.703326
4423.202635
4445.927242
4423.925605
4426.926224
4396.328501
4451.719400
4395.576870
4416.984365
4429.663124
4444.542500
4424.584105
4452.082375
4407.706400
4454.907273
4421.397440
4435.539569
4412.712065
4424.808176
4428.224118
4429.399870
4418.571359
4419.751433
4419.702990
4443.516864
4415.317034
4403.085471
4431.351168
4433.419207
4429.582098
4415.586715
4427.052877
4431.291452
4421.712973
4430.666329
4433.308889
4426.484307
4427.071499
4432.695768
4438.944029
4428.372525
4438.597142
4394.194582
4443.467312
4402.981696
4453.032424
4429.053197
4432.129831
4408.206490
4431.327262
4415.981434
4431.493080
4471.558155
4399.845481
4407.537532
4446.570663
4411.021173
4434.891809
4407.380197
4428.003444
4423.634627
4440.671444
4440.635340
4434.951032
4424.839112
4433.172620
4426.065005
4439.500302
4417.007153
4415.251178
4438.166624
4437.782715
4400.146163
4431.452796
4423.104792
4426.245668
4373.172927
4370.731713
4460.902266
4429.103143
4405.530467
4422.487458
4409.666122
4452.022355
4424.474269
4408.567094
4464.217203
4421.620933
4421.619399
4446.354096
4432.623789
4427.280626
4428.799615
4404.754403
4435.012523
4422.255416
4435.877121
4430.842013
4410.555740
4442.559450
4464.763289
4406.475352
4440.739143
4438.182864
4439.138636
4397.011342
4420.237751
4497.431097
4469.324945
4426.570256
4435.681542
4434.897189
4437.863833
4418.788792
4423.382095
4416.785025
4435.947191
4416.226115
4434.268986
4413.662898
4436.062598
4430.753908
4432.591413
4434.888290
4443.851197
4439.594898
4433.741082
4421.977306
4437.913954
4445.904658
4408.343634
4409.549837
4435.672563
4450.917483
4406.597609
4436.113604
4458.876413
4386.972798
4453.160203
4403.926590
4386.352890
4431.241211
4435.477965
4428.017582
4389.966269
4472.391079
4398.534717
4415.431934
4418.437783
4472.936512
4354.935803
4413.720860
4433.228745
4434.173524
4419.828441
4426.727427
4406.022206
4448.940599
4437.713513
4401.018189
4419.029900
4450.077268
4451.471797
4419.169307
4405.969018
4468.582138
4437.874089
4434.929106
4392.474429
4390.317819
4466.757199
4457.497254
4441.240515
4405.740416
4405.399972
4428.804917
4442.710154
4442.900337
4372.708871
4474.177577
4430.414529
4462.054545
4417.418550
4434.717573
4435.825218
4430.523813
4438.379156
4444.834435
4417.978820
4409.616341
4450.719248
4421.913490
4407.889235
4400.015235
4454.726077
4435.751138
4414.113974
4397.583659
4442.405773
4460.531915
4449.182677
4333.828917
4471.845759
4464.479760
4436.134391
4472.269091
4424.989645
4443.169222
4457.921871
4440.288182
4424.992985
4400.542097
4405.621848
4438.642436
4431.332396
4433.317814
4421.077051
4415.629013
4418.620944
4439.223948
4433.974045
4421.848014
4400.337057
4465.605410
4425.121092
4420.630295
4412.981431
4439.714426
4406.773880
4446.415350
4376.433410
4446.507769
4316.002241
4502.891615
4438.016066
4417.060818
4431.754184
4487.913732
4423.743038
4439.582684
4399.195676
4476.068918
4354.109092
4432.921281
4448.645916
4432.816001
4435.753854
4426.620997
4444.605735
4420.614564
4432.686641
4420.701715
4436.727494
4427.082039
4406.947491
4420.719977
4438.730034
4409.470247
4467.103223
4382.238652
4457.778928
4395.473138
4477.661960
4475.637865
4504.053714
4411.942485
4417.577888
4383.423402
4437.869794
4405.449810
4438.185030
4450.015108
4446.660628
4444.569220
4349.059425
4454.334708
4427.929613
4429.614680
4422.370670
4428.573840
4408.327757
4427.976048
4421.403716
4413.248476
4439.995575
4446.237355
4434.806319
4442.619111
4415.195607
4416.316657
4440.450688
4432.518535
4434.970492
4424.253193
4433.017209
4504.479937
4449.287566
4432.944319
4439.539439
4422.820959
4391.463455
4458.969600
4416.357761
4437.969569
4439.745993
4442.337326
4410.781801
4425.607732
4425.746443
4441.750014
4428.722412
4433.732994
4433.665199
4446.069605
4441.678330
4386.365679
4406.270160
4444.843612
4464.632017
4418.072435
4395.374550
4406.973669
4416.181695
4459.652903
4402.129557
4386.669656
4430.965251
4393.608766
4416.637759
4424.683757
4435.261296
4406.941395
4445.640346
4384.099253
4394.992752
4477.314175
4468.407921
4407.274677
4429.729562
4431.850454
4413.410993
4427.326897
4443.593825
4418.440729
4401.273431
4429.556775
4443.162693
4419.106634
4461.540726
4427.088703
4443.687356
4438.906756
4449.995665
4474.417673
4379.396577
4439.537808
4441.075899
4445.612723
4430.036155
4428.517041
4424.237329
4454.146935
4442.569358
4461.825165
4468.140200
4440.837916
4382.058514
4417.041889
4398.316735
4432.579269
4422.134623
4442.217132
4443.572087
4404.646294
4446.635023
4445.245818
4453.595705
4421.157292
4416.347473
4438.290822
4409.771426
4401.935677
4423.885596
4421.235754
4416.433969
4438.299591
4424.737430
4449.510327
4434.637969
4429.613824
4438.544915
4433.846816
4422.371564
4429.733688
4445.354955
4416.676968
4491.583944
4399.060613
4452.234252
4427.272465
4429.740966
4428.766587
4413.450447
4429.141992
4432.865704
4414.893786
4405.829042
4425.075053
4431.663547
4454.396823
4385.653565
4467.864236
4411.740405
4442.212209
4406.329521
4449.953404
4406.591563
4389.502495
4423.869576
4460.808265
4436.176848
4420.822786
4462.452154
4424.931746
4418.687868
4438.888065
4427.676282
4443.361604
4350.392127
4390.825888
4403.233199
4416.879187
4432.793218
4438.176727
4402.710409
4455.138489
4405.499820
4420.072779
4449.644199
4413.120889
4403.332836
4407.373476
4443.697349
4419.720009
4412.914357
4437.071722
4436.902294
4465.631777
4377.286218
4431.115964
4430.208902
4426.466311
4417.585205
4430.314009
4425.368204
4443.696474
4465.603884
4442.084237
4366.079907
4447.695424
4471.374263
4414.222408
4426.495578
4428.283783
4421.973367
4453.695439
4404.116344
4434.279043
4459.288617
4460.147763
4439.056353
4435.958409
4406.434657
4433.018536
4458.205359
4421.446507
4438.882033
4408.592136
4405.411709
4440.924880
4365.231986
4423.036940
4434.380296
4434.882427
4422.954341
4443.917881
4408.715982
4411.422706
4398.221813
4373.941509
4450.096847
4401.290056
4431.110043
4432.726189
4433.226308
4411.327760
4446.210618
4408.907125
4421.511317
4401.416360
4435.810823
4435.397075
4403.457315
4419.691070
4427.708492
4416.603826
4381.161116
4418.126641
4462.898069
4392.847031
4456.795126
4464.274482
4452.341417
4432.497825
4431.337943
4434.338859
4413.547314
4452.666351
4420.801641
4460.762112
4472.495881
4464.286156
4431.015855
4402.009871
4420.483809
4439.750580
4426.541733
4406.806152
4437.421861
4443.540529
4420.846725
4446.073323
4429.201086
4434.087340
4456.772164
4415.299276
4426.856962
4432.200369
4444.971636
4416.249417
4416.983516
4440.856034
4394.566540
4469.503887
4440.358432
4434.697473
4406.324140
4450.902902
4414.960177
4458.563933
4389.058018
4422.638516
4332.803833
4397.453495
4403.958216
4435.686119
4415.261435
4439.701756
4436.555549
4416.827737
4427.950967
4418.203951
4409.909072
4412.468413
4430.879497
4438.403946
4438.543665
4404.475313
4443.063730
4458.935206
4419.307100
4405.621372
4474.870928
4374.302111
4437.751778
4412.630839
4407.165816
4441.329338
4408.361369
4432.181311
4461.514325
4440.136524
4397.112870
4402.926748
4467.226774
4446.635272
4434.356204
4422.869887
4426.804790
4434.651624
4426.287000
4418.932686
4453.780317
4443.632000
4420.895196
4433.348063
4437.502912
4423.624927
4426.893970
4425.146931
4456.799733
4416.378203
4418.049191
4454.417906
4438.836521
4329.934332
4399.705639
4425.481173
4419.657691
4437.672496
4454.996730
4474.696827
4410.351054
4442.596321
4446.637714
4403.511705
4363.105562
4422.613053
4438.802904
4432.467425
4411.717221
4440.536456
4433.742219
4405.877073
4425.337770
4424.679799
4416.003346
4427.654858
4429.216604
4428.199192
4397.331466
4450.847136
4378.219355
4425.479178
4465.563063
4394.385110
4526.804591
4394.302556
4430.463557
4415.366206
4428.809999
4434.732838
4444.568134
4439.739459
4426.524858
4499.391297
4450.034082
4420.082837
4430.198091
4430.394504
4420.436231
4428.694939
4424.828230
4436.591180
4452.666310
4427.807062
4435.651239
4429.488414
4415.350286
4420.575994
4404.051646
4449.758284
4435.969612
4447.438190
4431.155410
4419.543994
4431.780699
4425.496843
4474.328395
4446.021442
4461.782100
4422.445041
4465.873493
4474.780338
4413.843214
4426.329433
4472.784093
4431.678043
4479.144411
4434.078549
4427.683082
4431.447613
4435.907953
4407.085511
4431.356224
4394.151669
4450.323484
4422.737921
4415.135166
4444.949391
4415.753908
4430.962941
4434.962631
4399.501526
4445.894727
4411.847902
4417.704924
4414.117228
4444.052918
4445.369634
4438.618220
4457.969636
4464.674107
4448.450237
4433.777787
4371.233458
4390.159006
4379.706173
4348.018956
4395.548277
4428.971790
4432.794583
4419.352759
4417.931721
4440.979039
4445.363656
4421.510558
4429.654304
4436.443125
4453.917207
4417.901637
4447.616900
4426.013965
4425.769858
4457.868544
4413.434312
4408.829681
4446.892384
4414.810012
4430.507187
4446.162147
4416.198690
4438.037702
4429.457249
4463.736160
4452.012595
4360.795530
4463.018557
4477.932517
4395.988643
4445.290819
4430.501302
4424.655341
4435.648317
4423.742086
4422.055447
4410.415651
4420.407023
4431.070620
4481.922774
4421.708244
4416.428497
4432.809956
4422.894124
4442.440586
4403.509853
4437.716079
4426.163739
4442.941937
4389.310884
4411.933314
4418.743646
4433.777682
4381.413246
4436.248354
4371.926994
4406.114205
4452.761048
4468.587801
4472.405052
4390.116126
4423.244842
4432.017649
4421.049627
4422.437959
4429.875433
4453.648723
4450.376448
4414.457067
4414.643341
4397.612385
4420.199162
4401.535002
4447.864014
4436.420512
4418.661842
4447.278633
4424.093256
4424.171170
4461.015486
4477.441469
4377.892680
4426.989022
4419.745711
4434.812212
4411.285252
4397.981330
4443.813882
4394.154889
4465.895539
4439.617179
4412.703641
4408.329431
4422.100674
4439.204438
4425.765488
4428.147983
4422.656022
4420.361574
4422.537449
4445.004014
4413.986568
4422.975992
4427.427367
4446.082373
4405.152135
4440.781838
4417.326542
4398.912129
4448.740173
4456.906622