# vtk DataFile Version 2.0
mfree iwf
ASCII

DATASET UNSTRUCTURED_GRID
POINTS 6231 float
0.000000 0.000300 0.000000
0.000000 0.000310 0.000000
0.000000 0.000320 0.000000
0.000000 0.000330 0.000000
0.000000 0.000340 0.000000
0.000000 0.000350 0.000000
0.000000 0.000360 0.000000
0.000001 0.000370 0.000000
0.000001 0.000380 0.000000
0.000001 0.000390 0.000000
0.000001 0.000400 0.000000
0.000001 0.000410 0.000000
0.000001 0.000420 0.000000
0.000001 0.000430 0.000000
0.000001 0.000440 0.000000
0.000002 0.000450 0.000000
0.000002 0.000460 0.000000
0.000002 0.000471 0.000000
0.000002 0.000480 0.000000
0.000002 0.000492 0.000000
0.000006 0.000501 0.000000
0.000772 0.000937 0.000000
0.000841 0.000979 0.000000
0.000788 0.000946 0.000000
0.000854 0.000985 0.000000
0.000875 0.000992 0.000000
0.000924 0.001000 0.000000
0.000932 0.000999 0.000000
0.000944 0.000994 0.000000
0.000957 0.000993 0.000000
0.000988 0.000995 0.000000
0.000010 0.000300 0.000000
0.000010 0.000310 0.000000
0.000010 0.000320 0.000000
0.000010 0.000330 0.000000
0.000010 0.000340 0.000000
0.000010 0.000350 0.000000
0.000010 0.000360 0.000000
0.000011 0.000370 0.000000
0.000011 0.000380 0.000000
0.000011 0.000390 0.000000
0.000011 0.000400 0.000000
0.000011 0.000410 0.000000
0.000011 0.000420 0.000000
0.000011 0.000430 0.000000
0.000011 0.000440 0.000000
0.000011 0.000450 0.000000
0.000012 0.000460 0.000000
0.000012 0.000472 0.000000
0.000013 0.000478 0.000000
0.000009 0.000492 0.000000
0.000013 0.000498 0.000000
0.000894 0.000990 0.000000
0.000909 0.000992 0.000000
0.000917 0.000993 0.000000
0.000924 0.000991 0.000000
0.000940 0.000987 0.000000
0.000951 0.000986 0.000000
0.000966 0.000983 0.000000
0.000977 0.000985 0.000000
0.000983 0.000983 0.000000
0.000985 0.000991 0.000000
0.000020 0.000300 0.000000
0.000020 0.000310 0.000000
0.000020 0.000320 0.000000
0.000020 0.000330 0.000000
0.000021 0.000340 0.000000
0.000020 0.000350 0.000000
0.000021 0.000360 0.000000
0.000021 0.000370 0.000000
0.000020 0.000380 0.000000
0.000021 0.000390 0.000000
0.000021 0.000400 0.000000
0.000022 0.000410 0.000000
0.000021 0.000420 0.000000
0.000022 0.000431 0.000000
0.000021 0.000440 0.000000
0.000023 0.000451 0.000000
0.000021 0.000460 0.000000
0.000022 0.000470 0.000000
0.000021 0.000481 0.000000
0.000024 0.000494 0.000000
0.000020 0.000497 0.000000
0.000862 0.000977 0.000000
0.000891 0.000985 0.000000
0.000901 0.000988 0.000000
0.000906 0.000985 0.000000
0.000916 0.000979 0.000000
0.000931 0.000984 0.000000
0.000958 0.000979 0.000000
0.000972 0.000980 0.000000
0.000980 0.000972 0.000000
0.000988 0.000970 0.000000
0.000030 0.000300 0.000000
0.000030 0.000310 0.000000
0.000030 0.000320 0.000000
0.000030 0.000330 0.000000
0.000030 0.000340 0.000000
0.000030 0.000350 0.000000
0.000031 0.000360 0.000000
0.000030 0.000370 0.000000
0.000032 0.000380 0.000000
0.000030 0.000390 0.000000
0.000031 0.000400 0.000000
0.000031 0.000411 0.000000
0.000031 0.000420 0.000000
0.000031 0.000430 0.000000
0.000031 0.000440 0.000000
0.000031 0.000450 0.000000
0.000031 0.000459 0.000000
0.000036 0.000473 0.000000
0.000029 0.000478 0.000000
0.000033 0.000488 0.000000
0.000032 0.000497 0.000000
0.000063 0.000500 0.000000
0.000883 0.000980 0.000000
0.000899 0.000971 0.000000
0.000927 0.000975 0.000000
0.000936 0.000968 0.000000
0.000942 0.000979 0.000000
0.000946 0.000972 0.000000
0.000957 0.000970 0.000000
0.000964 0.000969 0.000000
0.000987 0.000961 0.000000
0.000040 0.000300 0.000000
0.000040 0.000310 0.000000
0.000040 0.000320 0.000000
0.000040 0.000330 0.000000
0.000040 0.000341 0.000000
0.000041 0.000350 0.000000
0.000040 0.000359 0.000000
0.000040 0.000370 0.000000
0.000041 0.000380 0.000000
0.000040 0.000390 0.000000
0.000042 0.000399 0.000000
0.000041 0.000410 0.000000
0.000042 0.000420 0.000000
0.000041 0.000431 0.000000
0.000042 0.000439 0.000000
0.000043 0.000450 0.000000
0.000042 0.000460 0.000000
0.000037 0.000469 0.000000
0.000045 0.000477 0.000000
0.000043 0.000496 0.000000
0.000040 0.000498 0.000000
0.000684 0.000787 0.000000
0.000891 0.000972 0.000000
0.000910 0.000971 0.000000
0.000917 0.000966 0.000000
0.000925 0.000973 0.000000
0.000947 0.000963 0.000000
0.000969 0.000959 0.000000
0.000967 0.000950 0.000000
0.000977 0.000963 0.000000
0.000985 0.000952 0.000000
0.000050 0.000300 0.000000
0.000050 0.000310 0.000000
0.000050 0.000320 0.000000
0.000050 0.000330 0.000000
0.000051 0.000340 0.000000
0.000050 0.000350 0.000000
0.000050 0.000361 0.000000
0.000052 0.000371 0.000000
0.000050 0.000380 0.000000
0.000052 0.000390 0.000000
0.000051 0.000400 0.000000
0.000050 0.000411 0.000000
0.000052 0.000420 0.000000
0.000051 0.000430 0.000000
0.000053 0.000440 0.000000
0.000048 0.000451 0.000000
0.000054 0.000458 0.000000
0.000053 0.000470 0.000000
0.000056 0.000483 0.000000
0.000049 0.000488 0.000000
0.000050 0.000498 0.000000
0.000880 0.000986 0.000000
0.000837 0.000970 0.000000
0.000905 0.000966 0.000000
0.000921 0.000955 0.000000
0.000934 0.000958 0.000000
0.000951 0.000957 0.000000
0.000942 0.000952 0.000000
0.000959 0.000958 0.000000
0.000975 0.000951 0.000000
0.000982 0.000941 0.000000
0.000060 0.000300 0.000000
0.000060 0.000310 0.000000
0.000060 0.000320 0.000000
0.000061 0.000331 0.000000
0.000060 0.000339 0.000000
0.000060 0.000350 0.000000
0.000061 0.000359 0.000000
0.000060 0.000368 0.000000
0.000061 0.000380 0.000000
0.000060 0.000391 0.000000
0.000062 0.000400 0.000000
0.000060 0.000409 0.000000
0.000063 0.000419 0.000000
0.000059 0.000431 0.000000
0.000065 0.000439 0.000000
0.000060 0.000450 0.000000
0.000065 0.000460 0.000000
0.000055 0.000472 0.000000
0.000065 0.000475 0.000000
0.000068 0.000486 0.000000
0.000058 0.000496 0.000000
0.000870 0.000984 0.000000
0.000882 0.000970 0.000000
0.000899 0.000954 0.000000
0.000912 0.000955 0.000000
0.000928 0.000946 0.000000
0.000934 0.000940 0.000000
0.000962 0.000940 0.000000
0.000953 0.000947 0.000000
0.000972 0.000940 0.000000
0.000980 0.000933 0.000000
0.000070 0.000300 0.000000
0.000070 0.000310 0.000000
0.000070 0.000319 0.000000
0.000070 0.000329 0.000000
0.000071 0.000340 0.000000
0.000069 0.000351 0.000000
0.000073 0.000359 0.000000
0.000069 0.000374 0.000000
0.000081 0.000376 0.000000
0.000070 0.000390 0.000000
0.000073 0.000400 0.000000
0.000069 0.000411 0.000000
0.000074 0.000421 0.000000
0.000068 0.000429 0.000000
0.000075 0.000438 0.000000
0.000067 0.000451 0.000000
0.000077 0.000459 0.000000
0.000073 0.000470 0.000000
0.000076 0.000486 0.000000
0.000068 0.000495 0.000000
0.000076 0.000496 0.000000
0.000677 0.000764 0.000000
0.000871 0.000971 0.000000
0.000892 0.000961 0.000000
0.000912 0.000937 0.000000
0.000930 0.000956 0.000000
0.000944 0.000940 0.000000
0.000953 0.000939 0.000000
0.000948 0.000929 0.000000
0.000969 0.000930 0.000000
0.000977 0.000923 0.000000
0.000080 0.000300 0.000000
0.000080 0.000310 0.000000
0.000081 0.000321 0.000000
0.000079 0.000331 0.000000
0.000082 0.000340 0.000000
0.000079 0.000350 0.000000
0.000082 0.000362 0.000000
0.000072 0.000369 0.000000
0.000076 0.000383 0.000000
0.000079 0.000392 0.000000
0.000089 0.000396 0.000000
0.000079 0.000410 0.000000
0.000085 0.000417 0.000000
0.000078 0.000431 0.000000
0.000087 0.000445 0.000000
0.000077 0.000448 0.000000
0.000086 0.000463 0.000000
0.000074 0.000470 0.000000
0.000087 0.000473 0.000000
0.000085 0.000482 0.000000
0.000084 0.000495 0.000000
0.000860 0.000982 0.000000
0.000832 0.000975 0.000000
0.000897 0.000942 0.000000
0.000908 0.000951 0.000000
0.000921 0.000941 0.000000
0.000928 0.000931 0.000000
0.000938 0.000930 0.000000
0.000958 0.000927 0.000000
0.000966 0.000921 0.000000
0.000974 0.000913 0.000000
0.000090 0.000300 0.000000
0.000090 0.000310 0.000000
0.000090 0.000319 0.000000
0.000090 0.000329 0.000000
0.000091 0.000340 0.000000
0.000089 0.000350 0.000000
0.000091 0.000360 0.000000
0.000089 0.000369 0.000000
0.000092 0.000379 0.000000
0.000090 0.000387 0.000000
0.000085 0.000404 0.000000
0.000094 0.000410 0.000000
0.000088 0.000425 0.000000
0.000096 0.000425 0.000000
0.000089 0.000435 0.000000
0.000097 0.000455 0.000000
0.000087 0.000453 0.000000
0.000097 0.000471 0.000000
0.000106 0.000480 0.000000
0.000089 0.000494 0.000000
0.000094 0.000495 0.000000
0.000690 0.000804 0.000000
0.000865 0.000966 0.000000
0.000854 0.000971 0.000000
0.000884 0.000961 0.000000
0.000907 0.000930 0.000000
0.000933 0.000922 0.000000
0.000947 0.000922 0.000000
0.000953 0.000916 0.000000
0.000963 0.000912 0.000000
0.000971 0.000904 0.000000
0.000100 0.000300 0.000000
0.000100 0.000310 0.000000
0.000100 0.000321 0.000000
0.000100 0.000331 0.000000
0.000101 0.000340 0.000000
0.000101 0.000350 0.000000
0.000100 0.000360 0.000000
0.000101 0.000371 0.000000
0.000100 0.000381 0.000000
0.000100 0.000391 0.000000
0.000099 0.000400 0.000000
0.000104 0.000406 0.000000
0.000101 0.000418 0.000000
0.000100 0.000436 0.000000
0.000110 0.000443 0.000000
0.000096 0.000445 0.000000
0.000108 0.000460 0.000000
0.000098 0.000467 0.000000
0.000095 0.000481 0.000000
0.000106 0.000491 0.000000
0.000101 0.000494 0.000000
0.000793 0.000950 0.000000
0.000802 0.000956 0.000000
0.000826 0.000971 0.000000
0.000909 0.000940 0.000000
0.000922 0.000927 0.000000
0.000923 0.000917 0.000000
0.000944 0.000913 0.000000
0.000935 0.000908 0.000000
0.000958 0.000905 0.000000
0.000966 0.000895 0.000000
0.000110 0.000300 0.000000
0.000110 0.000310 0.000000
0.000110 0.000320 0.000000
0.000110 0.000329 0.000000
0.000111 0.000340 0.000000
0.000110 0.000351 0.000000
0.000110 0.000359 0.000000
0.000111 0.000369 0.000000
0.000111 0.000378 0.000000
0.000111 0.000389 0.000000
0.000112 0.000400 0.000000
0.000110 0.000414 0.000000
0.000116 0.000422 0.000000
0.000107 0.000427 0.000000
0.000111 0.000433 0.000000
0.000106 0.000449 0.000000
0.000115 0.000461 0.000000
0.000111 0.000471 0.000000
0.000116 0.000480 0.000000
0.000111 0.000493 0.000000
0.000119 0.000492 0.000000
0.000743 0.000901 0.000000
0.000698 0.000824 0.000000
0.000860 0.000961 0.000000
0.000882 0.000949 0.000000
0.000872 0.000947 0.000000
[...]
POINT_DATA 6231
SCALARS density float 1
LOOKUP_TABLE default
4412.693371
4426.189538
4423.432361
4423.236264
4422.937960
4422.882071
4423.905655
4424.978596
4428.218940
4428.624308
4426.070555
4430.304950
4429.151787
4431.086256
4430.879102
4439.448769
4423.288351
4432.510509
4413.081723
4424.235745
4411.236839
4421.610617
4426.467256
4430.770024
4441.265308
4419.368502
4397.346020
4429.141091
4450.873960
4453.073024
4417.732069
4417.783236
4423.951320
4425.276119
4426.492987
4424.369530
4429.042786
4426.299767
4431.746842
4428.829815
4431.181935
4426.329464
4433.617775
4424.011928
4434.557240
4416.301657
4428.117107
4411.487601
4441.573565
4463.198401
4460.053319
4416.071809
4411.543213
4416.095908
4436.696544
4506.828128
4393.433540
4399.263810
4426.369770
4399.605847
4454.817175
4441.196217
4418.079871
4427.836775
4427.507711
4422.988109
4430.236543
4428.553708
4421.164500
4430.520748
4411.786610
4432.399561
4423.103710
4432.793957
4420.299174
4440.454442
4417.974208
4472.377056
4399.796617
4453.781252
4351.137108
4451.190984
4421.205838
4419.881810
4428.020959
4413.118373
4502.613812
4331.133848
4368.445812
4416.259703
4422.626726
4424.397174
4400.385843
4426.615159
4430.340379
4424.550252
4429.679653
4431.216611
4425.840475
4431.305762
4438.246940
4429.892538
4443.682078
4409.714194
4438.848284
4420.970848
4441.894386
4403.590116
4430.574208
4395.091228
4455.192101
4371.380110
4552.179446
4372.299346
4430.674118
4455.427036
4437.877702
4481.416745
4342.811780
4489.606212
4465.681305
4411.728694
4476.601834
4434.468739
4425.988407
4426.715955
4430.144529
4437.099611
4425.277500
4437.812288
4433.541720
4422.433704
4422.763399
4419.739988
4420.983989
4448.496240
4404.655995
4444.299377
4419.866821
4451.526198
4388.838337
4507.605194
4308.734117
4419.344932
4384.637068
4434.968596
4415.415429
4432.676043
4416.015017
4480.435480
4425.819118
4409.932394
4483.468827
4442.025477
4413.137622
4426.819323
4438.422021
4428.221619
4430.293683
4431.234841
4431.840510
4421.993094
4450.438189
4432.337753
4439.686676
4427.604542
4426.091999
4419.379781
4453.348722
4371.715281
4479.256789
4361.761018
4471.823573
4357.510118
4539.284525
4381.618717
4445.003550
4429.689175
4449.125367
4409.130207
4443.674234
4450.246414
4385.831104
4400.719104
4419.407434
4417.944011
4435.701113
4436.024023
4417.375098
4442.939638
4431.664328
4441.745007
4412.750958
4430.428708
4386.413591
4441.469583
4414.947488
4439.067383
4416.122656
4432.539448
4421.064257
4463.382763
4401.236253
4519.494005
4380.625657
4482.316259
4432.185601
4416.809833
4397.254148
4415.487933
4459.813034
4465.273857
4421.429955
4403.613587
4420.936362
4424.265539
4426.392707
4429.001708
4423.075900
4434.358353
4439.011382
4397.136918
4452.318204
4400.562605
4441.170458
4395.983573
4460.709181
4392.704607
4441.821612
4402.732185
4441.340127
4435.523521
4455.180719
4443.751905
4448.956943
4447.102794
4412.526641
4391.193578
4439.481031
4455.250814
4434.049787
4437.806010
4433.616241
4426.560472
4454.741272
4440.103319
4449.874843
4412.062310
4427.468058
4431.569609
4426.731910
4409.121903
4442.863797
4431.795141
4428.100491
4453.969306
4422.237404
4425.900266
4420.595887
4436.847031
4422.986462
4438.481877
4462.899276
4386.623104
4451.131730
4449.545491
4367.816296
4463.982078
4414.358574
4434.372055
4414.689778
4414.799703
4442.601410
4375.460433
4459.968201
4426.577988
4401.212690
4433.207206
4439.168720
4428.021919
4430.627752
4420.969707
4423.678951
4438.910036
4406.885253
4445.530066
4440.564419
4450.239510
4440.637259
4440.395143
4400.618134
4427.936800
4453.642275
4415.844255
4379.787744
4439.273524
4434.086297
4422.795085
4424.655808
4414.646262
4427.990431
4427.579289
4426.195131
4481.637958
4411.643416
4391.838333
4442.328458
4444.672222
4426.931854
4413.894598
4427.735701
4420.774448
4438.505919
4431.490072
4417.672386
4440.671445
4427.853747
4404.605581
4436.281060
4396.573535
4440.229193
4447.254822
4414.777158
4390.757178
4445.113953
4454.583533
4421.716596
4467.240781
4415.765791
4440.195571
4420.736922
4422.750864
4431.523966
4422.467032
4449.618313
4458.803358
4372.607680
4400.863594
4465.936758
4451.335636
4422.291164
4428.327359
4432.863785
4431.531026
4419.005266
4435.450539
4433.593387
4422.651033
4452.662027
4429.170720
4448.014876
4411.265869
4444.479483
4403.271525
4450.422697
4428.945528
4433.458694
4458.749293
4392.353381
4462.320071
4402.433277
4407.365961
4437.691224
4440.099092
4437.716047
4397.255526
4441.208845
4451.529794
4462.604900
4410.238433
4424.112470
4453.967163
4429.010257
4431.586198
4419.658714
4434.924325
4437.748682
4413.325095
4419.320803
4439.581585
4382.117133
4457.437390
4405.907702
4417.301393
4452.831614
4438.063487
4432.550533
4380.372536
4447.450661
4402.744016
4429.406245
4431.068122
4391.101516
4441.686813
4419.393507
4431.655913
4451.285315
4452.724132
4424.808410
4341.028442
4457.968907
4388.658886
4415.275968
4430.778417
4437.120035
4426.235450
4436.546712
4411.575408
4446.452622
4446.652979
4421.507552
4455.416600
4432.032534
4430.518258
4414.164895
4422.171040
4454.316627
4412.972115
4444.888841
4392.849304
4445.893536
4508.220975
4417.233043
4438.535041
4435.737639
4420.355990
4422.946820
4433.351857
4428.855287
4443.423146
4467.908085
4473.548708
4494.953981
4452.548373
4436.116241
4439.434959
4423.430675
4431.859207
4429.004184
4423.603714
4411.596376
4406.913767
4451.076877
4393.674764
4432.863896
4439.085165
4420.634887
4417.676095
4436.236105
4387.998546
4430.140681
4506.682650
4568.060352
4380.811317
4372.712133
4412.091181
4418.023919
4447.191229
4444.734887
4377.171182
4459.343256
4416.426200
4401.497044
4404.977137
4449.947327
4432.173210
4428.377334
4435.203865
4426.375465
4431.866615
4417.674336
4430.583923
4465.568488
4409.134416
4436.717020
4429.661273
4428.015328
4443.968201
4394.511420
4478.254709
4391.609162
4490.664671
4347.556262
4328.953184
4484.894528
4395.018518
4410.961996
4435.846492
4440.867564
4483.504039
4445.737968
4421.790020
4436.826075
4403.930774
4425.705048
4411.797935
4430.462662
4428.919612
4441.823953
4421.906958
4429.647456
4437.626720
4397.825145
4414.892865
4396.818551
4457.659053
4419.509862
4385.323912
4465.207271
4405.658197
4419.213938
4450.886764
4403.599466
4486.975579
4484.100512
4418.895473
4404.343634
4425.120384
4452.530608
4408.254505
4370.983284
4467.034560
4453.025844
4424.330930
4403.811913
4431.286606
4428.581150
4436.722586
4433.156643
4417.571336
4440.792305
4428.153792
4425.981099
4437.950717
4432.196631
4439.214055
4405.165939
4465.587671
4446.028901
4408.221307
4456.454441
4432.796016
4430.375871
4395.877247
4489.872785
4359.464335
4363.830250
4427.524861
4423.132845
4440.773526
4445.277641
4400.659342
4450.662492
4436.854737
4423.952890
4469.505516
4436.982315
4439.025066
4430.413806
4435.352081
4431.280692
4442.608509
4426.095943
4424.940899
4436.510081
4395.217391
4448.983174
4447.976382
4400.467000
4420.115906
4422.332247
4435.711996
4381.829184
4467.058750
4348.432473
4460.007029
4393.766742
4446.969323
4397.313119
4431.026883
4433.927141
4432.776021
4457.620283
4403.117690
4461.125048
4456.267061
4413.720829
4408.300216
4422.061421
4430.203237
4419.834730
4432.288134
4409.811975
4446.206838
4439.220563
4419.749620
4456.418260
4407.604232
4421.076288
4427.094676
4453.724957
4419.118654
4433.706902
4435.496833
4451.948069
4369.954241
4460.179779
4432.630784
4562.581845
4379.270140
4472.903085
4426.267901
4439.434956
4437.849480
4388.693258
4455.966601
4398.628069
4405.518450
4426.215203
4417.930780
4435.172632
4431.627701
4441.311069
4435.866409
4421.115971
4425.681869
4410.075703
4439.295855
4421.627896
4419.901644
4424.121184
4421.975013
4413.160977
4438.927253
4413.330871
4454.799776
4435.784662
4468.590762
4377.568995
4384.041699
4436.481846
4410.397401
4424.197185
4456.581851
4416.069390
4400.173457
4426.133486
4443.455631
4456.728074
4412.172236
4405.691473
4435.788700
4432.159412
4417.133826
4434.326765
4424.775054
4441.493574
4434.593665
4413.973047
4421.109456
4448.974125
4411.223717
4440.581535
4435.633701
4429.433867
4409.353509
4457.394606
4432.964325
4441.059436
4397.500273
4462.224122
4411.006405
4445.707968
4416.058392
4420.758987
4436.583822
4411.730152
4391.633837
4447.227141
4364.997321
4420.737833
4444.560579
4428.393806
4434.449201
4433.812225
4441.770202
4419.549984
4415.686716
4418.263619
4446.046620
4419.409307
4420.489262
4425.593082
4426.346700
4452.861466
4399.957597
4414.541904
4456.423496
4375.747985
4402.301089
4435.495625
4444.082703
4424.109643
4425.793513
4425.852732
4461.979659
4415.158910
4451.769386
4475.279725
4368.222977
4466.223025
4380.362338
4420.623606
4429.212130
4431.919432
4427.035097
4422.192698
4425.946489
4454.896348
4421.132430
4413.725781
4414.393478
4440.427926
4419.026155
4434.581968
4429.144581
4435.160117
4443.359099
4407.930782
4454.645215
4419.200391
4407.741833
4444.229497
4418.901856
4414.968061
4459.721664
4414.817224
4430.846720
4455.052716
4431.646269
4366.317561
4440.486787
4428.413877
4448.522255
4425.907309
4430.382582
4423.043486
4437.157269
4432.206789
4403.901722
4425.710990
4434.742284
4420.954164
4420.183274
4432.883729
4419.502271
4422.241416
4420.156974
4403.599378
4424.896810
4396.167426
4467.932372
4439.488741
4491.052981
4409.670502
4417.882562
4455.320164
4419.768561
4451.416584
4436.829763
4461.596170
4423.508665
4453.608787
4424.290843
4436.634966
4425.235733
4438.232359
4429.276628
4424.288382
4427.690066
4434.634911
4444.571429
4397.091642
4441.094341
4431.502374
4414.545287
4434.366363
4446.371689
4426.571756
4430.698371
4456.026637
4398.668553
4453.151778
4362.073988
4413.424035
4431.647640
4406.115856
4451.183722
4439.955890
4420.670097
4432.206024
4427.138881
4421.897054
4419.250568
4412.632019
4418.350059
4432.675868
4434.052592
4417.855773
4439.814043
4421.144252
4422.190524
4408.515876
4447.098893
4434.568552
4414.016612
4435.403378
4440.420574
4382.964269
4439.309159
4409.819290
4451.524887
4427.377871
4470.997341
4409.078147
4446.073667
4423.142531
4443.000477
4427.132759
4377.819819
4425.732471
4430.454845
4415.930423
4446.066187
4487.588104
4422.418590
4445.024097
4433.684170
4428.983970
4429.990309
4441.862514
4417.188928
4447.330696
4422.801256
4435.126044
4396.289055
4450.389958
4406.486790
4420.003950
4405.017351
4453.473508
4397.085302
4454.445893
4399.562745
4481.071916
4401.759721
4435.770811
4417.798086
4420.704889
4432.230946
4432.804842
4414.935484
4432.078384
4419.144848
4423.335730
4384.359972
4387.335670
4428.349675
4428.483888
4432.217219
4429.275403
4423.420035
4429.943499
4441.753671
4416.848359
4430.466461
4418.583466
4440.881183
4409.754192
4433.995122
4433.639710
4436.221520
4428.417287
4423.422878
4397.875013
4448.796223
4425.959754
4429.669898
4409.185318
4434.545263
4416.271263
4429.256287
4474.889216
4386.129652
4422.738996
4446.165500
4388.100013
4439.923583
4406.877382
4428.648552
4431.541784
4423.848671
4439.422564
4442.385775
4411.849674
4435.789271
4445.448882
4413.854300
4409.084756
4423.278839
4437.104679
4426.684245
4397.895351
4438.949929
4442.797622
4407.770145
4368.603374
4394.181047
4466.669360
4438.857055
4412.276345
4406.187474
4397.090530
4452.513148
4441.513475
4436.856973
4469.139737
4450.684489
4436.957785
4457.274673
4430.948565
4430.983874
4431.096497
4422.269804
4420.421770
4442.410785
4431.656706
4405.359675
4440.073044
4428.590792
4441.725638
4397.839990
4452.117519
4447.021222
4414.964771
4430.765414
4408.033450
4489.140505
4456.050539
4436.917269
4442.879107
4423.527026
4451.039805
4419.318717
4436.136951
4438.300977
4428.479052
4432.461869
4422.751167
4395.413469
4426.129289
4428.192702
4432.963762
4437.124905
4436.460264
4439.234158
4425.692870
4428.548210
4432.932461
4443.857521
4402.832543
4437.847304
4438.043510
4426.598738
4416.040082
4434.350149
4448.322586
4393.609688
4447.874423
4391.649327
4379.961190
4429.707338
4433.769051
4425.712035
4386.739312
4468.449454
4391.197244
4425.544653
4413.818104
4469.007321
4361.686800
4421.278057
4437.342826
4432.598325
4420.147108
4421.228956
4432.100704
4425.904003
4432.668623
4421.726661
4405.477413
4463.356203
4424.456567
4425.242146
4425.370663
4450.220346
4432.541072
4437.217309
4410.594851
4391.996068
4461.579125
4463.069073
4445.520010
4400.595857
4405.644031
4425.271061
4450.554215
4431.100554
4376.807492
4457.168851
4424.249752
4462.957132
4422.561565
4437.658455
4427.227549
4443.326839
4442.016699
4415.380262
4444.214078
4409.065889
4438.747163
4417.260318
4420.748353
4397.212009
4459.483544
4422.028830
4439.451081
4392.659008
4435.337426
4447.855415
4465.974303
4332.836034
4473.654167
4460.077115
4423.958309
4489.556274
4432.255006
4455.422501
4462.396493
4440.930212
4419.407935
4388.929504
4400.884515
4436.261107
4437.628501
4426.712355
4416.105661
4411.675801
4429.264044
4431.267698
4418.952436
4444.816286
4402.764745
4445.094372
4411.478456
4435.542700
4401.615222
4435.908331
4410.472961
4444.100524
4381.751289
4442.327443
4322.682402
4497.969999
4467.393169
4421.673440
4410.587369
4521.929140
4386.473814
4440.758017
4398.235764
4466.073137
4362.753554
4433.414401
4445.791588
4430.257636
4437.494248
4429.413524
4446.015285
4431.414783
4435.628830
4420.170271
4420.454135
4413.161277
4438.724664
4408.592018
4415.662888
4413.358727
4448.392998
4396.454432
4451.860160
4387.045035
4480.551454
4455.610457
4508.012254
4421.847273
4418.542733
4363.948401
4429.938125
4407.654538
4434.599545
4463.293317
4460.519097
4453.950159
4369.654142
4456.902419
4420.457134
4421.118791
4440.055531
4404.219744
4445.781494
4432.647540
4430.587704
4412.485703
4437.307122
4416.719037
4438.377701
4447.091661
4405.585021
4433.670103
4430.187850
4441.321304
4426.196840
4435.557095
4435.053327
4510.678437
4540.276517
4427.075716
4478.406824
4416.828137
4415.864797
4467.529377
4395.653176
4415.138324
4437.394584
4434.236351
4416.262705
4426.070710
4430.114276
4428.412405
4428.225080
4405.506580
4433.085086
4433.592521
4427.093747
4428.345269
4432.369808
4424.461024
4451.184382
4407.339718
4432.604943
4434.961910
4416.345752
4445.336463
4407.990058
4404.026660
4429.155430
4390.141969
4415.460799
4417.937106
4413.807292
4424.180001
4452.273190
4372.886240
4369.445303
4498.937058
4473.772286
4418.711967
4423.343460
4429.682594
4417.305639
4418.708563
4392.333524
4431.839866
4417.867253
4401.620601
4431.749283
4415.599166
4425.382603
4441.832403
4414.276175
4453.027073
4412.018534
4461.660082
4390.318584
4454.716962
4429.939706
4452.098660
4430.168666
4464.540955
4422.891271
4432.226065
4431.124795
4465.872539
4478.285456
4437.899558
4367.256305
4442.922196
4394.251149
4424.658513
4429.275120
4425.251449
4442.952307
4443.779459
4440.288996
4445.454103
4437.571413
4412.870637
4433.221908
4422.171177
4417.329556
4411.527591
4413.090929
4421.666754
4439.227150
4440.515676
4394.012033
4440.220093
4455.884695
4427.524780
4438.808149
4433.930117
4419.498127
4464.657460
4456.722298
4415.595726
4535.002920
4365.024513
4430.517300
4424.362203
4427.604935
4435.023667
4421.144258
4420.930056
4409.033400
4398.907215
4427.138031
4440.748600
4428.855350
4430.229005
4400.139089
4419.328976
4420.428801
4411.695391
4417.220480
4438.581354
4389.805108
4426.797640
4431.961014
4446.819158
4437.112702
4439.314309
4444.492129
4439.204020
4474.739060
4439.247966
4469.536746
4421.366938
4340.654066
4397.926725
4418.219899
4422.289844
4415.623371
4425.299495
4430.635679
4442.817613
4441.845366
4429.722016
4424.848269
4425.642203
4396.744373
4426.536393
4455.681451
4415.425602
4426.898529
4427.350804
4413.331549
4477.330418
4375.572824
4431.614460
4437.414067
4423.780069
4425.875238
4464.323609
4386.608874
4386.439861
4479.315118
4420.716111
4387.346078
4451.268957
4473.795150
4412.215294
4424.727869
4424.340555
4436.436775
4410.545907
4421.376207
4400.892336
4438.862174
4412.653250
4433.376893
4446.803063
4397.063319
4437.766784
4435.397245
4432.109430
4411.303223
4453.080789
4397.606441
4399.084666
4370.837348
4422.668043
4436.991951
4446.055599
4392.374684
4450.327159
4428.457003
4449.366295
4394.547507
4384.216166
4472.549401
4361.727113
4419.260032
4426.269139
4415.310992
4429.919720
4412.302762
4449.782956
4425.221946
4469.430556
4390.016528
4451.696310
4403.911495
4427.468386
4420.969278
4436.916608
4418.653385
4407.724625
4434.261895
4407.736022
4445.440475
4469.391564
4443.740274
4436.808235
4461.994466
4436.443321
4417.129443
4471.255840
4454.267181
4457.264662
4472.355241
4460.267456
4414.444051
4409.707905
4424.636341
4418.796837
4437.126269
4416.051605
4427.788734
4381.826890
4418.646276
4429.734013
4424.497923
4410.771579
4448.395788
4400.755920
4422.282017
4416.826889
4440.519883
4438.917664
4407.200959
4420.494246
4386.892093
4480.235505
4445.429520
4437.775748
4380.686714
4448.520878
4433.768222
4390.722254
4445.832770
4397.442961
4447.567832
4426.393707
4410.064783
4422.090632
4420.672509
4440.214630
4402.732430
4443.644042
4449.208009
4429.396312
4413.883872
4407.191365
4449.649061
4418.680959
4438.433494
4408.218447
4438.175482
4458.200922
4410.533142
4411.232948
4453.492752
4376.939969
4434.910663
4415.922675
4399.993868
4446.540747
4390.794998
4441.720598
4439.557891
4419.648388
4398.064867
4436.174266
4389.217890
4466.950076
4426.972800
4431.683698
4417.633728
4445.243991
4406.718506
4439.596744
4438.710835
4413.549022
4417.134822
4440.410128
4423.800851
4431.987782
4420.649488
4417.705837
4455.004576
4421.195624
4433.343566
4472.805959
4427.326076
4335.341104
4396.808358
4439.968638
4423.666952
4417.992273
4442.469159
4439.730120
4454.110652
4356.543548
4421.343856
4409.493288
4366.238684
4431.523871
4438.094246
4414.066150
4436.246094
4423.770320
4403.874191
4446.185679
4432.640162
4423.022444
4413.845771
4434.320856
4447.991695
4419.835677
4396.622058
4448.299524
4382.493180
4441.984941
4471.248980
4369.503704
4542.864642
4384.740140
4426.950127
4388.282635
4429.426734
4399.077474
4438.878622
4437.542649
4446.267180
4481.782716
4399.259184
4433.577065
4428.438856
4429.945254
4429.677604
4420.198846
4416.813151
4426.360217
4391.155896
4432.021045
4407.684544
4421.776318
4452.456612
4451.452228
4436.464130
4373.634226
4452.122840
4470.178897
4456.139518
4432.688283
4423.598714
4424.111286
4494.618667
4491.458801
4454.717803
4410.687947
4464.852718
4422.701170
4412.870705
4440.843080
4459.950414
4444.782637
4481.385723
4431.742649
4422.117522
4441.902816
4428.149705
4430.931283
4430.624200
4459.360726
4414.487382
4411.893617
4424.180155
4409.579072
4394.422332
4398.832708
4446.520879
4428.897283
4450.164360
4378.044135
4420.621532
4406.444502
4437.927410
4695.773624
4469.158587
4487.139700
4476.838396
4456.216509
4450.696804
4436.710266
4386.117431
4370.900254
4341.107236
4384.006737
4434.456490
4432.514992
4417.694647
4416.182375
4437.389687
4411.933107
4434.358138
4399.629619
4451.412436
4448.118360
4408.847200
4453.948470
4412.773734
4398.798546
4432.816661
4445.339389
4422.165343
4448.322665
4422.648235
4421.846334
4443.488057
4417.678140
4451.508979
4415.143075
4448.541446
4434.747648
4435.479363
4451.549604
4470.560847
4423.451956
4452.532952
4428.288847
4418.182641
4439.298505
4424.079210
4423.944623
4423.182366
4421.879624
4438.703666
4433.245029
4427.108709
4398.691194
4440.652655
4427.646219
4397.055950
4420.452961
4411.119673
4444.900770
4425.508891
4390.270834
4408.209968
4435.889971
4454.477215
4465.409918
4430.169166
4395.602949
4413.179954
4438.900475
4380.171625
4461.844380
4408.605756
4418.344765
4429.959345
4424.137158
4430.944478
4454.027386
4431.429592
4416.925187
4431.830635
4426.086116
4438.840775
4395.497059
4435.778776
4424.275491
4424.431331
4452.298023
4415.542008
4458.437141
4431.964671
4462.705200
4477.393653
4384.071455
4426.089526
4499.285641
4439.662303
4395.664644
4458.130718
4449.065939
4421.197856
4461.125015
4423.980580
4434.019111
4387.952166
4423.170980
4441.974751
4400.999193
4398.970426
4442.719516
4441.451036
4420.000198
4424.755524
4444.220796
4428.683530
4428.540682
4416.842131
4425.636037
4436.794154
4414.510212
4434.842478
4397.793158
4455.604977