# vtk DataFile Version 2.0
mfree iwf
ASCII

DATASET UNSTRUCTURED_GRID
POINTS 6231 float
0.000000 0.000300 0.000000
0.000000 0.000310 0.000000
0.000000 0.000320 0.000000
0.000000 0.000330 0.000000
0.000001 0.000340 0.000000
0.000001 0.000351 0.000000
0.000001 0.000361 0.000000
0.000001 0.000371 0.000000
0.000001 0.000381 0.000000
0.000001 0.000391 0.000000
0.000001 0.000401 0.000000
0.000001 0.000411 0.000000
0.000001 0.000421 0.000000
0.000002 0.000431 0.000000
0.000002 0.000441 0.000000
0.000002 0.000451 0.000000
0.000002 0.000461 0.000000
0.000002 0.000471 0.000000
0.000002 0.000480 0.000000
0.000002 0.000492 0.000000
0.000006 0.000501 0.000000
0.000133 0.000531 0.000000
0.000133 0.000576 0.000000
0.000133 0.000555 0.000000
0.000133 0.000596 0.000000
0.000133 0.000614 0.000000
0.000133 0.000633 0.000000
0.000133 0.000635 0.000000
0.000135 0.000649 0.000000
0.000136 0.000663 0.000000
0.000143 0.000705 0.000000
0.000010 0.000300 0.000000
0.000010 0.000310 0.000000
0.000010 0.000320 0.000000
0.000010 0.000330 0.000000
0.000010 0.000340 0.000000
0.000011 0.000350 0.000000
0.000011 0.000360 0.000000
0.000011 0.000370 0.000000
0.000011 0.000380 0.000000
0.000011 0.000390 0.000000
0.000011 0.000400 0.000000
0.000011 0.000411 0.000000
0.000012 0.000420 0.000000
0.000012 0.000431 0.000000
0.000012 0.000441 0.000000
0.000012 0.000451 0.000000
0.000012 0.000460 0.000000
0.000012 0.000472 0.000000
0.000013 0.000479 0.000000
0.000010 0.000492 0.000000
0.000013 0.000498 0.000000
0.000138 0.000596 0.000000
0.000140 0.000611 0.000000
0.000139 0.000620 0.000000
0.000141 0.000628 0.000000
0.000143 0.000650 0.000000
0.000143 0.000658 0.000000
0.000145 0.000673 0.000000
0.000143 0.000682 0.000000
0.000144 0.000689 0.000000
0.000141 0.000697 0.000000
0.000020 0.000300 0.000000
0.000020 0.000310 0.000000
0.000020 0.000320 0.000000
0.000021 0.000331 0.000000
0.000020 0.000340 0.000000
0.000021 0.000350 0.000000
0.000020 0.000361 0.000000
0.000021 0.000370 0.000000
0.000021 0.000380 0.000000
0.000022 0.000391 0.000000
0.000021 0.000400 0.000000
0.000022 0.000410 0.000000
0.000021 0.000420 0.000000
0.000022 0.000431 0.000000
0.000021 0.000440 0.000000
0.000023 0.000451 0.000000
0.000022 0.000460 0.000000
0.000022 0.000471 0.000000
0.000022 0.000481 0.000000
0.000024 0.000494 0.000000
0.000020 0.000498 0.000000
0.000147 0.000579 0.000000
0.000146 0.000595 0.000000
0.000147 0.000603 0.000000
0.000151 0.000620 0.000000
0.000153 0.000629 0.000000
0.000148 0.000644 0.000000
0.000150 0.000663 0.000000
0.000148 0.000678 0.000000
0.000153 0.000691 0.000000
0.000155 0.000700 0.000000
0.000030 0.000300 0.000000
0.000030 0.000310 0.000000
0.000030 0.000320 0.000000
0.000031 0.000329 0.000000
0.000030 0.000340 0.000000
0.000031 0.000351 0.000000
0.000031 0.000360 0.000000
0.000031 0.000370 0.000000
0.000031 0.000380 0.000000
0.000031 0.000390 0.000000
0.000032 0.000400 0.000000
0.000031 0.000411 0.000000
0.000032 0.000420 0.000000
0.000032 0.000431 0.000000
0.000033 0.000440 0.000000
0.000030 0.000451 0.000000
0.000033 0.000460 0.000000
0.000032 0.000471 0.000000
0.000033 0.000479 0.000000
0.000031 0.000488 0.000000
0.000032 0.000498 0.000000
0.000063 0.000500 0.000000
0.000158 0.000604 0.000000
0.000150 0.000613 0.000000
0.000152 0.000637 0.000000
0.000160 0.000645 0.000000
0.000156 0.000651 0.000000
0.000158 0.000664 0.000000
0.000159 0.000673 0.000000
0.000161 0.000684 0.000000
0.000163 0.000698 0.000000
0.000040 0.000300 0.000000
0.000040 0.000310 0.000000
0.000040 0.000320 0.000000
0.000040 0.000331 0.000000
0.000041 0.000340 0.000000
0.000040 0.000349 0.000000
0.000041 0.000360 0.000000
0.000040 0.000371 0.000000
0.000042 0.000380 0.000000
0.000040 0.000391 0.000000
0.000043 0.000400 0.000000
0.000040 0.000410 0.000000
0.000043 0.000421 0.000000
0.000039 0.000431 0.000000
0.000044 0.000439 0.000000
0.000042 0.000451 0.000000
0.000044 0.000460 0.000000
0.000040 0.000471 0.000000
0.000044 0.000479 0.000000
0.000044 0.000497 0.000000
0.000040 0.000498 0.000000
0.000133 0.000511 0.000000
0.000164 0.000598 0.000000
0.000165 0.000615 0.000000
0.000163 0.000625 0.000000
0.000166 0.000634 0.000000
0.000165 0.000656 0.000000
0.000167 0.000670 0.000000
0.000170 0.000679 0.000000
0.000169 0.000688 0.000000
0.000172 0.000697 0.000000
0.000050 0.000300 0.000000
0.000050 0.000310 0.000000
0.000050 0.000320 0.000000
0.000050 0.000329 0.000000
0.000051 0.000339 0.000000
0.000050 0.000351 0.000000
0.000052 0.000360 0.000000
0.000050 0.000370 0.000000
0.000052 0.000380 0.000000
0.000050 0.000391 0.000000
0.000053 0.000399 0.000000
0.000049 0.000411 0.000000
0.000053 0.000419 0.000000
0.000051 0.000430 0.000000
0.000054 0.000441 0.000000
0.000048 0.000451 0.000000
0.000054 0.000459 0.000000
0.000051 0.000471 0.000000
0.000054 0.000480 0.000000
0.000050 0.000488 0.000000
0.000050 0.000498 0.000000
0.000139 0.000586 0.000000
0.000147 0.000561 0.000000
0.000165 0.000612 0.000000
0.000171 0.000632 0.000000
0.000171 0.000644 0.000000
0.000173 0.000653 0.000000
0.000176 0.000660 0.000000
0.000177 0.000671 0.000000
0.000179 0.000685 0.000000
0.000182 0.000695 0.000000
0.000060 0.000300 0.000000
0.000060 0.000310 0.000000
0.000061 0.000320 0.000000
0.000060 0.000330 0.000000
0.000061 0.000341 0.000000
0.000060 0.000350 0.000000
0.000061 0.000359 0.000000
0.000060 0.000370 0.000000
0.000062 0.000380 0.000000
0.000060 0.000390 0.000000
0.000062 0.000401 0.000000
0.000060 0.000410 0.000000
0.000063 0.000420 0.000000
0.000058 0.000431 0.000000
0.000065 0.000438 0.000000
0.000061 0.000450 0.000000
0.000065 0.000460 0.000000
0.000058 0.000470 0.000000
0.000065 0.000477 0.000000
0.000068 0.000488 0.000000
0.000058 0.000496 0.000000
0.000137 0.000577 0.000000
0.000160 0.000593 0.000000
0.000177 0.000616 0.000000
0.000178 0.000625 0.000000
0.000180 0.000638 0.000000
0.000182 0.000650 0.000000
0.000186 0.000667 0.000000
0.000187 0.000675 0.000000
0.000189 0.000684 0.000000
0.000191 0.000693 0.000000
0.000070 0.000300 0.000000
0.000070 0.000310 0.000000
0.000070 0.000320 0.000000
0.000071 0.000330 0.000000
0.000070 0.000339 0.000000
0.000070 0.000350 0.000000
0.000071 0.000361 0.000000
0.000070 0.000371 0.000000
0.000072 0.000380 0.000000
0.000070 0.000390 0.000000
0.000072 0.000400 0.000000
0.000070 0.000410 0.000000
0.000073 0.000420 0.000000
0.000071 0.000430 0.000000
0.000073 0.000441 0.000000
0.000067 0.000451 0.000000
0.000076 0.000458 0.000000
0.000072 0.000470 0.000000
0.000075 0.000482 0.000000
0.000069 0.000496 0.000000
0.000076 0.000496 0.000000
0.000133 0.000505 0.000000
0.000156 0.000587 0.000000
0.000172 0.000603 0.000000
0.000185 0.000625 0.000000
0.000187 0.000638 0.000000
0.000191 0.000649 0.000000
0.000192 0.000659 0.000000
0.000196 0.000669 0.000000
0.000198 0.000682 0.000000
0.000201 0.000691 0.000000
0.000080 0.000300 0.000000
0.000080 0.000310 0.000000
0.000080 0.000320 0.000000
0.000081 0.000330 0.000000
0.000080 0.000341 0.000000
0.000082 0.000351 0.000000
0.000080 0.000359 0.000000
0.000081 0.000369 0.000000
0.000081 0.000380 0.000000
0.000080 0.000391 0.000000
0.000083 0.000400 0.000000
0.000080 0.000410 0.000000
0.000083 0.000419 0.000000
0.000080 0.000431 0.000000
0.000083 0.000439 0.000000
0.000082 0.000450 0.000000
0.000088 0.000465 0.000000
0.000076 0.000470 0.000000
0.000086 0.000474 0.000000
0.000086 0.000485 0.000000
0.000083 0.000496 0.000000
0.000137 0.000568 0.000000
0.000136 0.000561 0.000000
0.000183 0.000608 0.000000
0.000189 0.000617 0.000000
0.000194 0.000634 0.000000
0.000199 0.000647 0.000000
0.000203 0.000657 0.000000
0.000205 0.000670 0.000000
0.000208 0.000679 0.000000
0.000211 0.000689 0.000000
0.000090 0.000300 0.000000
0.000090 0.000310 0.000000
0.000091 0.000321 0.000000
0.000090 0.000330 0.000000
0.000091 0.000339 0.000000
0.000090 0.000349 0.000000
0.000091 0.000361 0.000000
0.000091 0.000371 0.000000
0.000090 0.000381 0.000000
0.000091 0.000389 0.000000
0.000091 0.000399 0.000000
0.000090 0.000411 0.000000
0.000093 0.000421 0.000000
0.000091 0.000429 0.000000
0.000092 0.000440 0.000000
0.000095 0.000454 0.000000
0.000085 0.000455 0.000000
0.000095 0.000468 0.000000
0.000104 0.000481 0.000000
0.000089 0.000495 0.000000
0.000095 0.000495 0.000000
0.000138 0.000523 0.000000
0.000153 0.000577 0.000000
0.000154 0.000570 0.000000
0.000174 0.000589 0.000000
0.000198 0.000628 0.000000
0.000207 0.000641 0.000000
0.000208 0.000656 0.000000
0.000213 0.000666 0.000000
0.000217 0.000676 0.000000
0.000221 0.000686 0.000000
0.000100 0.000300 0.000000
0.000100 0.000310 0.000000
0.000100 0.000319 0.000000
0.000100 0.000330 0.000000
0.000101 0.000341 0.000000
0.000099 0.000351 0.000000
0.000102 0.000359 0.000000
0.000099 0.000369 0.000000
0.000102 0.000379 0.000000
0.000101 0.000392 0.000000
0.000102 0.000402 0.000000
0.000101 0.000409 0.000000
0.000102 0.000419 0.000000
0.000101 0.000431 0.000000
0.000104 0.000441 0.000000
0.000100 0.000447 0.000000
0.000105 0.000460 0.000000
0.000102 0.000470 0.000000
0.000095 0.000480 0.000000
0.000107 0.000491 0.000000
0.000101 0.000494 0.000000
0.000141 0.000535 0.000000
0.000138 0.000553 0.000000
0.000144 0.000548 0.000000
0.000200 0.000618 0.000000
0.000206 0.000630 0.000000
0.000211 0.000639 0.000000
0.000217 0.000652 0.000000
0.000222 0.000660 0.000000
0.000225 0.000673 0.000000
0.000230 0.000683 0.000000
0.000110 0.000300 0.000000
0.000110 0.000310 0.000000
0.000110 0.000321 0.000000
0.000111 0.000331 0.000000
0.000109 0.000339 0.000000
0.000111 0.000349 0.000000
0.000111 0.000361 0.000000
0.000110 0.000371 0.000000
0.000113 0.000381 0.000000
0.000109 0.000389 0.000000
0.000113 0.000398 0.000000
0.000111 0.000410 0.000000
0.000113 0.000422 0.000000
0.000110 0.000429 0.000000
0.000114 0.000439 0.000000
0.000110 0.000451 0.000000
0.000115 0.000460 0.000000
0.000111 0.000470 0.000000
0.000117 0.000480 0.000000
0.000111 0.000493 0.000000
0.000119 0.000492 0.000000
0.000140 0.000517 0.000000
0.000147 0.000528 0.000000
0.000164 0.000580 0.000000
0.000181 0.000600 0.000000
0.000183 0.000592 0.000000
[...]
POINT_DATA 6231
SCALARS density float 1
LOOKUP_TABLE default
4385.935276
4423.264310
4422.522907
4415.837060
4418.567111
4425.850115
4424.593538
4424.994527
4426.801635
4426.786012
4425.327353
4428.000576
4425.021035
4425.106831
4425.688474
4439.357071
4424.885803
4436.375639
4424.213073
4427.443938
4413.736659
4752.756726
4604.867941
4578.363797
4572.968716
4461.406908
4460.170380
4450.468833
4425.915918
4452.794147
4411.633849
4396.879551
4419.480981
4416.346739
4414.578223
4431.396406
4420.203813
4416.829436
4426.791570
4424.131082
4424.996708
4422.409511
4429.493592
4429.383440
4443.437723
4416.353750
4428.149759
4408.025501
4454.246529
4418.397458
4477.445047
4410.432933
4402.991584
4375.182379
4382.011308
4439.940997
4394.361332
4412.533005
4409.009300
4395.914887
4409.694236
4455.872663
4403.344077
4414.999829
4419.484881
4425.720580
4422.965826
4414.171331
4430.976714
4428.592327
4413.448439
4435.268561
4423.810552
4432.599958
4410.249312
4426.295246
4416.950540
4464.521041
4393.209615
4466.285417
4327.531489
4437.962325
4397.183561
4468.929163
4467.667234
4476.680824
4481.133136
4433.540124
4390.387534
4423.695135
4434.393548
4480.911883
4396.555800
4410.357603
4427.918388
4422.687713
4418.786782
4407.182499
4435.246727
4427.812608
4418.522336
4424.425370
4434.130285
4407.838208
4441.002931
4425.261166
4449.544536
4398.874182
4443.457042
4391.481509
4485.693723
4342.765729
4626.111243
4356.585770
4393.716540
4395.438912
4485.503465
4413.646720
4444.593732
4481.369707
4435.512993
4433.226212
4436.487783
4430.383783
4421.616874
4422.210840
4410.262618
4432.697140
4434.238070
4432.142891
4398.609845
4437.610899
4427.060166
4428.578921
4420.733087
4442.241057
4396.280019
4448.939058
4412.220156
4453.553296
4399.478982
4473.496486
4326.180751
4419.141787
4383.567907
4584.403122
4456.090080
4470.809435
4408.096345
4468.628204
4407.678887
4449.793681
4444.117980
4366.058636
4435.646913
4420.411066
4421.576560
4432.280365
4431.959271
4403.539936
4424.033951
4436.408886
4441.852923
4396.668173
4441.222352
4420.036236
4437.878187
4427.818774
4444.561236
4398.726741
4454.062962
4376.937595
4491.226902
4365.477144
4553.087931
4374.928231
4402.424507
4445.963658
4469.256604
4463.910362
4400.651094
4480.379441
4441.174529
4398.501492
4443.627244
4424.546977
4411.490552
4422.220319
4427.639097
4414.191663
4446.497562
4438.085795
4408.173690
4420.466889
4433.760489
4439.235304
4406.234555
4436.563047
4410.465060
4445.235911
4403.661988
4468.936694
4409.243761
4467.551279
4359.883106
4568.745199
4416.316263
4411.799872
4459.997783
4462.755224
4453.123049
4440.321048
4452.730199
4435.852416
4450.638532
4391.018245
4432.191172
4420.757193
4443.637766
4416.835092
4424.515663
4441.112965
4409.023981
4438.744434
4434.564576
4420.624804
4423.040821
4423.042706
4438.358279
4416.898647
4441.225835
4407.543711
4444.956085
4392.795482
4478.334653
4374.804263
4386.901646
4377.530981
4601.378173
4465.964276
4449.876201
4449.449717
4472.848869
4438.327420
4402.302324
4450.666966
4405.366703
4419.324583
4435.357933
4424.313932
4410.812882
4442.480807
4400.139471
4441.591176
4449.611656
4407.624226
4431.463654
4423.842788
4436.289909
4423.749292
4417.904931
4433.241960
4433.081747
4451.889662
4452.336090
4464.820739
4356.252081
4599.751709
4391.652849
4427.146811
4411.166587
4460.601751
4455.493856
4446.722745
4443.174145
4467.165415
4415.660416
4435.427959
4413.264590
4422.540277
4420.298599
4441.526881
4438.834131
4412.147085
4444.462723
4392.984227
4448.004968
4441.948098
4411.397091
4427.831762
4413.006026
4455.538939
4421.823375
4405.128851
4382.550248
4441.921209
4474.821180
4432.740901
4390.476564
4387.598212
4367.243059
4468.451819
4458.270398
4470.520098
4468.943913
4452.766210
4448.597774
4408.820981
4436.106629
4415.044484
4419.221514
4434.246596
4432.910904
4399.069878
4442.749041
4419.270239
4429.711237
4446.721949
4395.380498
4432.429110
4438.343981
4422.940340
4411.966388
4406.103649
4448.018734
4451.301848
4407.130992
4424.976046
4367.953521
4457.255079
4426.991751
4430.051470
4430.301063
4461.103087
4436.669883
4447.619090
4477.991457
4447.321270
4458.307155
4403.320775
4404.647036
4426.414909
4426.259097
4409.386075
4445.416079
4451.534460
4396.590202
4448.615065
4407.475984
4452.804300
4449.852504
4396.399559
4431.536349
4435.022521
4441.403404
4391.515644
4409.635941
4451.440342
4407.941683
4413.321895
4408.101941
4421.155342
4364.825081
4521.562536
4389.596634
4408.739040
4407.220812
4435.319847
4453.373876
4456.764237
4435.601324
4401.826918
4426.337653
4431.188254
4436.210115
4424.373600
4395.338522
4449.045888
4439.064085
4399.509831
4449.735352
4400.476817
4458.757285
4434.303370
4389.533887
4422.945071
4443.677085
4430.615327
4412.151451
4436.480816
4470.244591
4450.560163
4392.802961
4560.598518
4454.132690
4483.531192
4478.223417
4420.197286
4422.359706
4449.118108
4374.884891
4443.434711
4399.039427
4431.845579
4417.595047
4422.716738
4413.611003
4447.757188
4441.648533
4396.935990
4444.483663
4417.893904
4415.201536
4450.922958
4405.741769
4450.063271
4434.529649
4405.971154
4417.874116
4434.644706
4425.208671
4394.003860
4438.755303
4416.879085
4512.976343
4457.899728
4458.288966
4457.667958
4482.428339
4453.141223
4480.514353
4501.564181
4450.272684
4403.514293
4423.811307
4422.841196
4445.920041
4428.575112
4415.257657
4394.797107
4452.856847
4449.327429
4395.777692
4449.648627
4394.724111
4439.058312
4443.402438
4401.410037
4410.609662
4438.920772
4430.433866
4435.909434
4475.782299
4468.925905
4490.112153
4421.859606
4413.796950
4459.745690
4436.749321
4454.785067
4482.849490
4394.698873
4470.262841
4431.241826
4411.655506
4424.940356
4426.924797
4428.233724
4403.065658
4442.602098
4447.058130
4410.873804
4395.511359
4447.743590
4440.643221
4403.322977
4453.834549
4391.246965
4446.747632
4445.448128
4415.730682
4408.250241
4439.211866
4407.175980
4377.745204
4457.807320
4465.950823
4463.950963
4477.569767
4449.219703
4456.239151
4422.078266
4415.923916
4443.858735
4419.472518
4413.813277
4421.962166
4427.321269
4417.405970
4444.064413
4436.113700
4399.146647
4426.264871
4448.085663
4428.348090
4401.014790
4439.714785
4411.666282
4423.660003
4444.347671
4383.513745
4443.804955
4399.026222
4445.837054
4450.238444
4465.324399
4468.211066
4408.587945
4487.776564
4419.825628
4469.240628
4443.214159
4448.284409
4412.648020
4398.554942
4444.044948
4414.351313
4418.301186
4443.238753
4426.731812
4419.724434
4402.653943
4450.567427
4449.996306
4398.482356
4405.084728
4444.650434
4443.096340
4403.761932
4432.191125
4398.220311
4447.037372
4435.441523
4421.568820
4429.615113
4431.185333
4421.853451
4461.229765
4433.617274
4445.067168
4470.550140
4443.386265
4434.352284
4429.728075
4446.934096
4410.520878
4442.817135
4413.043295
4434.122639
4427.167405
4408.885879
4438.976039
4438.919250
4417.576241
4395.517360
4451.918163
4458.423352
4395.411226
4397.466142
4442.412288
4438.724459
4397.821470
4430.435322
4377.561378
4442.835083
4398.931983
4434.665000
4429.615600
4437.522809
4438.882049
4446.692007
4464.789383
4455.833486
4457.833082
4447.434804
4422.507256
4396.057763
4457.205448
4411.371413
4424.957256
4418.278869
4444.261667
4441.727269
4403.373059
4426.386687
4444.161194
4424.462479
4389.800926
4446.860798
4455.654066
4393.158223
4405.878714
4440.092472
4422.624643
4407.671533
4441.909887
4397.281041
4430.847750
4430.377015
4430.119549
4445.226044
4438.540828
4436.866299
4447.911824
4456.057191
4452.405968
4475.768004
4470.055360
4420.037604
4415.473587
4424.788263
4428.845180
4433.105873
4396.324806
4449.451415
4448.101481
4401.503347
4411.892423
4448.473277
4437.314262
4387.035767
4445.079950
4440.988588
4399.163956
4413.633467
4427.898658
4409.586534
4427.156195
4434.081969
4424.781290
4433.375031
4434.644531
4443.726241
4453.248689
4426.400457
4465.742155
4454.480546
4477.772586
4404.684606
4430.020897
4443.924821
4424.013401
4425.070895
4420.963160
4440.551513
4444.173306
4389.896951
4450.558075
4447.558237
4402.036737
4400.916256
4447.434379
4448.454455
4384.884909
4443.693253
4429.413266
4403.203686
4426.834186
4424.207670
4418.160537
4417.535537
4442.216775
4450.166885
4427.019918
4434.401669
4409.077462
4465.654049
4417.381052
4416.659455
4483.562584
4379.157661
4461.632670
4422.124084
4436.985940
4433.471040
4423.578124
4405.662634
4444.679244
4452.099587
4389.377838
4443.684637
4449.657627
4404.332307
4395.385257
4444.782565
4449.629495
4390.047729
4444.453061
4422.014498
4399.351587
4425.063973
4423.153457
4435.000279
4431.176424
4437.577633
4453.499561
4447.293421
4457.139419
4410.544762
4461.021760
4483.951991
4430.173878
4469.283035
4437.697957
4426.309031
4416.889356
4429.821804
4439.723337
4431.227741
4392.683848
4448.404912
4454.651267
4391.426814
4431.724302
4447.838002
4418.262709
4384.351382
4435.410411
4448.491078
4392.171650
4435.718181
4429.430651
4419.620162
4430.177821
4441.299516
4421.451319
4421.459170
4433.900670
4456.659382
4453.363120
4459.090879
4423.381120
4450.058724
4442.657218
4425.797994
4419.773835
4441.214076
4442.025719
4412.067655
4420.535771
4444.659426
4440.186271
4387.667762
4452.096906
4457.263236
4392.526127
4411.355502
4452.781234
4437.608435
4375.019491
4431.357480
4455.790159
4388.516016
4415.540038
4420.807687
4428.407936
4430.018272
4443.160103
4433.872297
4414.230178
4452.855913
4420.824957
4475.030823
4457.393566
4379.305744
4423.681999
4436.782922
4436.957041
4405.409218
4443.440755
4444.705243
4410.566611
4413.150421
4444.981208
4446.819443
4386.412746
4460.136698
4456.983389
4390.103333
4399.665533
4458.938980
4444.746581
4384.311101
4430.884270
4416.953345
4431.973927
4437.957222
4437.464526
4421.084379
4450.817176
4459.651942
4433.565009
4455.523217
4463.526254
4460.910475
4475.933420
4431.404755
4429.693220
4415.355294
4443.817181
4446.729438
4405.121327
4436.861189
4448.303334
4417.003691
4406.627680
4443.502730
4451.237575
4387.951324
4462.895663
4456.741810
4386.988622
4403.629505
4441.513222
4463.984562
4393.748700
4406.738841
4421.323379
4446.530791
4439.201707
4443.045461
4438.625904
4461.387828
4435.773718
4474.846743
4442.980918
4469.363303
4429.333393
4435.335347
4439.284525
4436.906021
4403.921777
4449.481181
4452.071583
4403.677669
4427.601547
4448.948429
4428.989456
4396.667937
4445.720947
4455.536425
4394.726263
4457.912715
4445.584290
4405.113492
4388.215240
4448.217691
4459.399451
4404.168026
4438.706127
4408.730697
4453.369044
4446.582008
4461.700509
4459.000720
4470.641156
4446.815833
4460.106191
4440.206954
4430.398629
4419.779360
4425.004121
4444.124885
4443.028208
4398.947843
4453.650849
4456.658097
4401.072827
4420.382133
4448.057458
4442.456598
4388.226253
4451.901179
4458.268184
4392.878760
4434.937609
4445.539597
4437.704559
4419.582448
4448.155838
4449.522477
4418.297129
4463.471768
4414.316535
4470.422978
4443.263656
4462.598020
4458.435912
4456.604761
4430.802446
4425.145277
4441.821664
4444.608982
4419.415718
4416.027722
4449.547925
4448.627000
4395.974522
4450.236802
4458.948748
4402.499823
4412.414011
4447.897789
4452.156963
4391.271000
4461.849151
4444.271086
4391.591056
4429.474368
4450.533997
4443.631751
4417.500114
4443.425592
4431.556792
4462.612483
4451.420347
4449.416503
4447.217211
4461.222615
4454.037071
4427.387435
4433.891178
4436.276816
4410.069151
4444.418026
4445.949003
4423.070371
4408.143048
4451.429148
4457.793306
4393.146523
4448.677501
4458.075527
4406.596264
4410.243002
4448.892560
4461.443379
4404.703197
4474.316281
4422.746627
4440.477588
4427.388238
4448.408084
4461.127703
4427.978413
4464.377678
4419.230367
4470.396426
4432.689516
4466.701700
4451.918584
4440.858379
4435.738898
4423.910112
4445.039838
4448.413454
4412.785843
4434.793197
4450.089004
4428.907446
4401.346918
4449.785127
4461.230978
4394.586071
4443.874857
4452.482543
4419.305061
4398.419350
4464.560029
4464.068635
4378.854658
4439.193169
4439.137394
4425.498776
4419.584601
4456.280833
4452.688032
4472.568715
4452.785635
4458.867053
4456.966081
4451.831466
4436.752254
4430.639044
4433.006262
4444.394749
4407.809654
4450.109138
4451.483211
4410.129079
4428.012758
4450.486034
4441.330216
4397.851419
4448.972694
4468.313572
4390.825427
4438.894241
4449.992573
4430.431044
4418.974948
4468.643378
4446.442305
4402.525911
4434.967722
4452.102219
4439.038640
4427.738576
4461.392504
4428.073076
4457.376676
4449.927129
4453.546532
4433.674113
4435.104958
4434.567318
4423.591555
4441.899811
4449.628139
4405.324899
4448.958831
4453.515318
4409.316943
4418.463456
4448.990634
4450.382378
4397.071622
4457.997633
4464.547224
4398.066564
4429.102722
4445.598209
4458.107698
4407.623589
4457.235601
4448.881839
4419.379936
4443.386296
4448.020796
4463.719311
4455.784581
4457.250654
4448.687025
4454.472888
4436.385922
4433.685765
4434.115671
4429.579717
4431.623850
4412.219624
4453.524730
4454.094044
4401.287987
4446.865475
4456.317743
4414.784901
4415.023038
4441.556435
4463.581722
4393.353259
4472.478446
4463.485012
4390.072659
4433.413694
4458.987066
4468.803787
4407.427657
4438.624594
4442.735043
4430.310975
4450.043356
4445.264950
4458.799709
4447.761776
4449.625085
4433.696961
4425.062989
4433.175473
4426.751441
4439.616283
4437.026294
4441.982130
4402.808815
4455.046968
4456.400518
4398.027162
4440.456421
4453.169610
4425.333314
4410.659636
4443.722089
4467.607048
4388.325474
4467.669074
4446.384843
4399.050681
4419.063575
4459.468977
4464.542844
4410.358474
4446.770128
4438.539324
4459.951607
4430.945848
4459.874123
4448.213163
4435.128214
4439.074385
4444.212317
4427.193902
4441.517543
4422.038228
4430.660989
4448.255155
4449.795557
4400.244890
4452.794692
4463.957670
4398.001250
4431.772744
4448.819536
4438.115424
4411.667814
4461.502961
4471.599817
4385.685469
4453.344243
4448.123381
4448.510629
4399.821314
4452.674821
4457.441654
4423.647311
4462.238475
4434.819651
4455.471949
4447.405625
4448.512784
4437.385610
4419.993254
4442.176142
4422.970648
4436.752443
4444.032728
4424.534966
4411.917864
4452.177100
4456.424549
4394.946955
4457.092371
4463.051170
4402.101924
4429.905454
4440.686829
4452.985275
4411.881277
4476.372537
4471.612595
4371.872601
4448.639292
4454.869693
4447.587700
4415.873884
4433.695060
4448.359641
4451.968066
4451.370012
4445.735173
4439.926853
4424.112321
4445.660204
4449.791933
4412.305532
4450.331956
4415.841432
4447.105398
4446.856935
4431.861183
4405.173379
4451.580242
4460.814621
4392.215945
4451.978041
4453.939090
4414.648197
4423.120868
4443.781364
4462.555850
4415.731470
4471.148557
4434.234276
4404.640656
4435.637051
4455.783490
4441.253415
4442.139485
4448.319124
4449.551893
4448.596069
4432.324686
4440.607217
4444.311947
4410.826227
4449.348920
4440.350959
4412.977728
4455.374871
4408.140193
4437.883122
4441.871709
4438.669548
4402.507838
4454.836743
4469.435916
4390.307944
4446.475919
4441.153583
4429.903078
4407.320556
4449.381512
4472.570642
4413.767001
4451.133552
4437.790752
4443.317721
4432.979707
4450.254476
4451.443238
4444.296121
4449.491304
4440.988381
4438.281272
4416.953983
4450.152917
4457.028391
4411.418709
4445.377952
4423.098695
4437.582948
4458.709395
4410.473397
4423.887783
4444.727511
4443.607388
4399.485310
4463.576248
4468.862114
4391.045691
4452.285017
4428.984958
4445.737584
4400.859861
4456.895280
4463.049623
4398.264125
4435.269858
4449.777871
4446.435620
4441.205885
4449.259846
4446.129236
4440.523920
4431.539525
4446.255866
4441.602898
4405.921135
4449.275824
4459.002412
4400.942956
4454.440189
4398.019906
4453.161948
4448.317272
4413.904555
4419.122793
4447.545471
4454.848059
4400.147609
4468.832889
4451.301167
4389.069918
4461.510079
4427.222088
4465.948649
4399.713187
4467.173644
4440.278891
4413.841578
4440.814307
4431.572516
4456.952313
4445.788983
4441.767052
4433.473009
4434.657691
4423.292565
4445.524386
4452.020496
4412.739235
4448.809050
4438.777501
4420.359378
4460.813160
4399.157503
4442.193648
4442.585613
4422.928000
4410.534217
4447.388351
4464.143944
4408.861185
4471.668565
4416.239758
4404.551832
4442.314476
4440.330657
4477.008480
4390.279454
4461.821520
4437.400628
4444.693767
4443.903624
4449.155865
4436.116868
4429.010992
4436.466244
4440.244764
4433.945769
4411.822327
4446.685682
4461.104283
4409.192638
4440.875122
4411.642107
4445.207132
4461.135902
4404.754014
4433.049375
4446.667302
4439.482414
4402.767799
4446.534562
4462.805446
4403.729521
4460.722078
4407.586071
4433.430174
4422.969650
4452.934128
4461.793865
4397.509452
4465.636278
4427.546705
4450.143293
4430.386074
4442.526819
4441.532067
4420.932344
4427.326331
4451.055104
4435.187643
4411.289973
4446.186495
4451.856533
4416.704849
4450.012540
4400.474863
4457.567899
4453.116566
4402.831997
4425.950072
4450.293516
4452.197999
4401.570181
4459.311098
4436.184459
4412.878121
4466.444846
4456.594947
4438.771962
4429.112699
4450.073615
4452.114887
4440.633140
4454.231541
4440.225308
4441.865069
4413.767649
4450.469920
4443.263122
4413.967648
4417.888908
4457.139094
4449.652416
4416.332112
4419.755401
4431.896659
4426.574408
4458.066456
4402.210094
4456.569769
4445.580022
4408.316522
4422.772433
4448.270291
4465.727598
4417.873931
4444.879742
4404.134690
4457.645103
4414.198105
4451.351211
4444.192218
4439.828556
4452.447797
4441.073138
4437.970188
4426.279029
4439.913502
4448.616361
4410.366577
4445.013807
4450.882182
4409.374038
4411.470415
4462.196122
4451.053038
4423.765971
4444.271925
4407.540800
4445.374000
4455.265832
4407.614732
4446.839592
4435.321922
4431.533244
4405.874293
4450.811628
4462.285563
4409.649970
4454.084875
4451.466253
4438.741217
4426.329386
4442.069452
4458.815585
4441.279795
4433.517907
4438.248323
4441.751621
4413.846539
4438.113027
4452.557507
4407.272289
4437.227973
4457.835920
4414.653223
4412.165686
4441.242544
4440.097030
4427.758457
4450.874982
4402.716828
4455.541859
4455.698968
4406.138284
4443.865273
4443.036036
4444.572900
4395.962597
4449.280835
4412.277983
4424.575460
4424.616373
4454.728820
4446.291599
4438.220413
4450.159057
4439.895553
4434.425407
4421.589498
4440.954737
4448.469069
4405.615595
4448.781512
4447.659589
4411.888444
4412.958889
4463.378024
4447.739091
4412.717496
4431.950833
4415.358579
4438.761226
4448.697490
4409.436372
4457.458308
4438.825020
4409.282386
4442.524555
4445.313430
4468.600279
4416.267721
4451.001578
4439.813043
4422.855806
4448.939516
4435.891606
4447.489879
4433.847202
4428.035043
4444.721491
4435.753651
4416.476796
4437.476312
4452.236400
4403.883037
4453.455424
4458.397259
4402.416047
4402.167529
4462.665346
4447.996612
4419.007021
4451.917077
4401.976092
4446.221734
4448.146914
4412.292652
4444.530943
4418.551693
4431.424583
4416.728170
4442.957764
4426.490843
4427.404982
4438.476147
4437.875072
4450.095736
4449.096498
4436.913580
4433.314034
4435.340617
4419.763640
4444.421662
4443.694015
4405.751942
4442.570315
4445.024331
4405.924251
4439.962898
4463.188279
4415.655994
4410.417741
4450.049536
4429.512149
4430.941214
4458.828373
4402.062604
4449.806073
4450.256335
4411.722078
4447.240589
4449.884644
4444.242115
4428.932854
4446.139730
4435.316507
4445.669513
4443.910883
4445.205719
4433.132735
4429.124603
4428.589936
4443.529187
4432.902690
4414.652868
4443.200336
4448.415875
4400.934311
4450.347835
4443.000042
4414.986558
4405.385666
4456.780597
4441.192551
4414.890831
4442.027366
4409.496818
4448.028376
4447.254739
4409.882251
4446.342454
4442.146172
4397.782297
4437.854057
4441.010797
4426.910879
4439.725272
4441.335247
4450.339427
4443.139194
4426.428246
4440.737079
4436.993487
4426.484600
4421.362269
4447.116999
4437.771726
4411.286556
4440.051958
4446.792196
4402.871724
4452.625456
4455.920501
4417.512332
4400.729682
4449.230540
4442.360732
4419.627194
4450.409833
4399.196660
4450.522707
4441.460427
4418.084758
4435.414285
4444.093263
4433.763711
4439.169250
4449.065467
4439.801597
4446.638787
4448.060215
4435.790890
4437.285829
4414.535278
4441.041942
4441.582943
4423.294360
4412.869279
4450.079028
4448.116223
4406.861243
4439.778305
4442.358404
4402.698442
4437.307436
4456.016596
4421.620875
4418.978745
4441.986163