# vtk DataFile Version 2.0
mfree iwf
ASCII

DATASET UNSTRUCTURED_GRID
POINTS 6231 float
0.000000 0.000300 0.000000
0.000000 0.000310 0.000000
0.000000 0.000320 0.000000
0.000000 0.000330 0.000000
0.000001 0.000340 0.000000
0.000001 0.000350 0.000000
0.000001 0.000361 0.000000
0.000001 0.000371 0.000000
0.000001 0.000381 0.000000
0.000001 0.000391 0.000000
0.000001 0.000401 0.000000
0.000001 0.000411 0.000000
0.000001 0.000421 0.000000
0.000002 0.000431 0.000000
0.000002 0.000441 0.000000
0.000002 0.000451 0.000000
0.000002 0.000461 0.000000
0.000002 0.000471 0.000000
0.000002 0.000480 0.000000
0.000002 0.000492 0.000000
0.000006 0.000501 0.000000
0.000159 0.000543 0.000000
0.000160 0.000589 0.000000
0.000160 0.000561 0.000000
0.000160 0.000607 0.000000
0.000160 0.000629 0.000000
0.000161 0.000664 0.000000
0.000162 0.000667 0.000000
0.000166 0.000680 0.000000
0.000170 0.000694 0.000000
0.000183 0.000733 0.000000
0.000010 0.000300 0.000000
0.000010 0.000310 0.000000
0.000010 0.000320 0.000000
0.000010 0.000330 0.000000
0.000010 0.000340 0.000000
0.000011 0.000350 0.000000
0.000011 0.000360 0.000000
0.000011 0.000370 0.000000
0.000011 0.000380 0.000000
0.000011 0.000390 0.000000
0.000011 0.000400 0.000000
0.000011 0.000411 0.000000
0.000011 0.000420 0.000000
0.000012 0.000431 0.000000
0.000012 0.000441 0.000000
0.000012 0.000451 0.000000
0.000012 0.000460 0.000000
0.000012 0.000472 0.000000
0.000014 0.000479 0.000000
0.000010 0.000492 0.000000
0.000013 0.000498 0.000000
0.000164 0.000627 0.000000
0.000166 0.000643 0.000000
0.000166 0.000652 0.000000
0.000169 0.000658 0.000000
0.000175 0.000679 0.000000
0.000176 0.000687 0.000000
0.000180 0.000702 0.000000
0.000181 0.000711 0.000000
0.000182 0.000718 0.000000
0.000181 0.000726 0.000000
0.000020 0.000300 0.000000
0.000020 0.000310 0.000000
0.000020 0.000320 0.000000
0.000020 0.000330 0.000000
0.000021 0.000340 0.000000
0.000020 0.000350 0.000000
0.000021 0.000360 0.000000
0.000021 0.000370 0.000000
0.000021 0.000380 0.000000
0.000022 0.000391 0.000000
0.000021 0.000400 0.000000
0.000022 0.000411 0.000000
0.000021 0.000420 0.000000
0.000022 0.000431 0.000000
0.000021 0.000440 0.000000
0.000023 0.000451 0.000000
0.000021 0.000460 0.000000
0.000022 0.000470 0.000000
0.000022 0.000481 0.000000
0.000024 0.000494 0.000000
0.000020 0.000497 0.000000
0.000173 0.000602 0.000000
0.000171 0.000621 0.000000
0.000168 0.000635 0.000000
0.000174 0.000648 0.000000
0.000184 0.000658 0.000000
0.000178 0.000672 0.000000
0.000183 0.000692 0.000000
0.000184 0.000707 0.000000
0.000192 0.000717 0.000000
0.000195 0.000726 0.000000
0.000030 0.000300 0.000000
0.000030 0.000310 0.000000
0.000030 0.000320 0.000000
0.000031 0.000330 0.000000
0.000030 0.000340 0.000000
0.000031 0.000350 0.000000
0.000031 0.000360 0.000000
0.000031 0.000371 0.000000
0.000031 0.000380 0.000000
0.000031 0.000390 0.000000
0.000032 0.000400 0.000000
0.000031 0.000411 0.000000
0.000032 0.000420 0.000000
0.000032 0.000431 0.000000
0.000032 0.000440 0.000000
0.000030 0.000451 0.000000
0.000032 0.000459 0.000000
0.000035 0.000471 0.000000
0.000031 0.000479 0.000000
0.000033 0.000488 0.000000
0.000032 0.000498 0.000000
0.000063 0.000500 0.000000
0.000181 0.000631 0.000000
0.000176 0.000640 0.000000
0.000178 0.000663 0.000000
0.000192 0.000672 0.000000
0.000186 0.000677 0.000000
0.000192 0.000690 0.000000
0.000193 0.000697 0.000000
0.000197 0.000709 0.000000
0.000204 0.000723 0.000000
0.000040 0.000300 0.000000
0.000040 0.000310 0.000000
0.000040 0.000320 0.000000
0.000040 0.000331 0.000000
0.000041 0.000340 0.000000
0.000040 0.000350 0.000000
0.000041 0.000360 0.000000
0.000041 0.000370 0.000000
0.000042 0.000380 0.000000
0.000040 0.000391 0.000000
0.000042 0.000400 0.000000
0.000041 0.000410 0.000000
0.000043 0.000421 0.000000
0.000039 0.000431 0.000000
0.000043 0.000439 0.000000
0.000043 0.000450 0.000000
0.000044 0.000460 0.000000
0.000038 0.000471 0.000000
0.000045 0.000478 0.000000
0.000043 0.000497 0.000000
0.000040 0.000498 0.000000
0.000160 0.000515 0.000000
0.000186 0.000623 0.000000
0.000190 0.000641 0.000000
0.000189 0.000651 0.000000
0.000191 0.000661 0.000000
0.000197 0.000681 0.000000
0.000202 0.000696 0.000000
0.000207 0.000703 0.000000
0.000206 0.000712 0.000000
0.000212 0.000721 0.000000
0.000050 0.000300 0.000000
0.000050 0.000310 0.000000
0.000051 0.000320 0.000000
0.000050 0.000329 0.000000
0.000051 0.000340 0.000000
0.000050 0.000351 0.000000
0.000052 0.000360 0.000000
0.000050 0.000370 0.000000
0.000052 0.000380 0.000000
0.000050 0.000390 0.000000
0.000053 0.000399 0.000000
0.000049 0.000411 0.000000
0.000053 0.000419 0.000000
0.000051 0.000430 0.000000
0.000054 0.000441 0.000000
0.000047 0.000451 0.000000
0.000055 0.000459 0.000000
0.000053 0.000470 0.000000
0.000055 0.000482 0.000000
0.000049 0.000488 0.000000
0.000050 0.000498 0.000000
0.000166 0.000615 0.000000
0.000173 0.000582 0.000000
0.000191 0.000639 0.000000
0.000199 0.000655 0.000000
0.000202 0.000668 0.000000
0.000203 0.000678 0.000000
0.000210 0.000682 0.000000
0.000210 0.000693 0.000000
0.000216 0.000707 0.000000
0.000221 0.000717 0.000000
0.000060 0.000300 0.000000
0.000060 0.000310 0.000000
0.000061 0.000320 0.000000
0.000059 0.000331 0.000000
0.000062 0.000340 0.000000
0.000059 0.000350 0.000000
0.000062 0.000360 0.000000
0.000060 0.000370 0.000000
0.000062 0.000380 0.000000
0.000060 0.000390 0.000000
0.000063 0.000401 0.000000
0.000060 0.000410 0.000000
0.000064 0.000420 0.000000
0.000058 0.000431 0.000000
0.000065 0.000439 0.000000
0.000061 0.000450 0.000000
0.000066 0.000460 0.000000
0.000056 0.000472 0.000000
0.000065 0.000476 0.000000
0.000068 0.000486 0.000000
0.000059 0.000496 0.000000
0.000165 0.000607 0.000000
0.000181 0.000621 0.000000
0.000202 0.000638 0.000000
0.000204 0.000650 0.000000
0.000209 0.000662 0.000000
0.000212 0.000673 0.000000
0.000220 0.000688 0.000000
0.000222 0.000696 0.000000
0.000225 0.000704 0.000000
0.000230 0.000713 0.000000
0.000070 0.000300 0.000000
0.000070 0.000310 0.000000
0.000070 0.000320 0.000000
0.000071 0.000329 0.000000
0.000070 0.000339 0.000000
0.000070 0.000350 0.000000
0.000072 0.000361 0.000000
0.000070 0.000371 0.000000
0.000072 0.000380 0.000000
0.000070 0.000389 0.000000
0.000072 0.000399 0.000000
0.000070 0.000410 0.000000
0.000074 0.000421 0.000000
0.000070 0.000429 0.000000
0.000075 0.000440 0.000000
0.000066 0.000451 0.000000
0.000077 0.000459 0.000000
0.000073 0.000470 0.000000
0.000076 0.000485 0.000000
0.000068 0.000496 0.000000
0.000076 0.000496 0.000000
0.000159 0.000507 0.000000
0.000182 0.000612 0.000000
0.000194 0.000628 0.000000
0.000211 0.000646 0.000000
0.000215 0.000659 0.000000
0.000223 0.000671 0.000000
0.000224 0.000680 0.000000
0.000230 0.000688 0.000000
0.000234 0.000700 0.000000
0.000239 0.000709 0.000000
0.000080 0.000300 0.000000
0.000080 0.000310 0.000000
0.000080 0.000320 0.000000
0.000081 0.000331 0.000000
0.000080 0.000341 0.000000
0.000082 0.000350 0.000000
0.000079 0.000359 0.000000
0.000081 0.000369 0.000000
0.000082 0.000380 0.000000
0.000080 0.000391 0.000000
0.000084 0.000400 0.000000
0.000080 0.000410 0.000000
0.000083 0.000419 0.000000
0.000079 0.000431 0.000000
0.000083 0.000440 0.000000
0.000080 0.000449 0.000000
0.000087 0.000464 0.000000
0.000075 0.000470 0.000000
0.000086 0.000473 0.000000
0.000086 0.000483 0.000000
0.000084 0.000496 0.000000
0.000166 0.000594 0.000000
0.000160 0.000582 0.000000
0.000206 0.000631 0.000000
0.000215 0.000639 0.000000
0.000223 0.000655 0.000000
0.000228 0.000665 0.000000
0.000235 0.000674 0.000000
0.000239 0.000688 0.000000
0.000243 0.000696 0.000000
0.000248 0.000705 0.000000
0.000090 0.000300 0.000000
0.000090 0.000310 0.000000
0.000091 0.000320 0.000000
0.000090 0.000329 0.000000
0.000091 0.000339 0.000000
0.000090 0.000350 0.000000
0.000091 0.000361 0.000000
0.000092 0.000371 0.000000
0.000090 0.000380 0.000000
0.000092 0.000389 0.000000
0.000091 0.000399 0.000000
0.000091 0.000411 0.000000
0.000092 0.000422 0.000000
0.000092 0.000429 0.000000
0.000092 0.000440 0.000000
0.000095 0.000456 0.000000
0.000087 0.000453 0.000000
0.000096 0.000470 0.000000
0.000106 0.000481 0.000000
0.000089 0.000495 0.000000
0.000095 0.000495 0.000000
0.000160 0.000526 0.000000
0.000180 0.000603 0.000000
0.000177 0.000592 0.000000
0.000196 0.000615 0.000000
0.000225 0.000647 0.000000
0.000237 0.000662 0.000000
0.000239 0.000676 0.000000
0.000246 0.000682 0.000000
0.000252 0.000692 0.000000
0.000257 0.000701 0.000000
0.000100 0.000300 0.000000
0.000100 0.000310 0.000000
0.000100 0.000320 0.000000
0.000100 0.000330 0.000000
0.000102 0.000341 0.000000
0.000099 0.000351 0.000000
0.000102 0.000359 0.000000
0.000099 0.000369 0.000000
0.000101 0.000380 0.000000
0.000102 0.000391 0.000000
0.000101 0.000402 0.000000
0.000102 0.000409 0.000000
0.000102 0.000418 0.000000
0.000101 0.000431 0.000000
0.000104 0.000442 0.000000
0.000099 0.000447 0.000000
0.000105 0.000459 0.000000
0.000101 0.000468 0.000000
0.000095 0.000482 0.000000
0.000107 0.000491 0.000000
0.000101 0.000494 0.000000
0.000160 0.000565 0.000000
0.000160 0.000578 0.000000
0.000163 0.000573 0.000000
0.000223 0.000638 0.000000
0.000233 0.000648 0.000000
0.000239 0.000654 0.000000
0.000248 0.000666 0.000000
0.000254 0.000675 0.000000
0.000259 0.000687 0.000000
0.000266 0.000696 0.000000
0.000110 0.000300 0.000000
0.000110 0.000310 0.000000
0.000110 0.000320 0.000000
0.000111 0.000330 0.000000
0.000109 0.000339 0.000000
0.000111 0.000349 0.000000
0.000111 0.000362 0.000000
0.000110 0.000371 0.000000
0.000113 0.000380 0.000000
0.000108 0.000389 0.000000
0.000113 0.000398 0.000000
0.000111 0.000411 0.000000
0.000114 0.000423 0.000000
0.000110 0.000428 0.000000
0.000114 0.000439 0.000000
0.000110 0.000451 0.000000
0.000115 0.000462 0.000000
0.000112 0.000470 0.000000
0.000116 0.000480 0.000000
0.000111 0.000493 0.000000
0.000119 0.000492 0.000000
0.000162 0.000525 0.000000
0.000162 0.000531 0.000000
0.000189 0.000600 0.000000
0.000204 0.000622 0.000000
0.000204 0.000612 0.000000
[...]
POINT_DATA 6231
SCALARS density float 1
LOOKUP_TABLE default
4389.274077
4424.836094
4420.043297
4417.034183
4422.833463
4423.624519
4422.539158
4426.480773
4428.321160
4428.642820
4427.403142
4429.944413
4424.966314
4424.976847
4429.378394
4442.040684
4421.157995
4428.213957
4412.695573
4423.939189
4413.348958
4700.315756
4585.648447
4584.363850
4515.694518
4574.555079
4429.873207
4447.355060
4429.003841
4453.048511
4413.409116
4402.274118
4418.623045
4415.646895
4418.300432
4426.722500
4422.693526
4422.183210
4424.426629
4422.542944
4425.469899
4421.354947
4431.009528
4428.032600
4448.019197
4418.358820
4424.009592
4415.843221
4457.779852
4455.264769
4467.664947
4414.148651
4427.747849
4346.211371
4371.894677
4462.853944
4398.647975
4398.700977
4420.940617
4406.538843
4417.719883
4455.401080
4403.715275
4414.609809
4425.184886
4427.198073
4418.144036
4417.107420
4429.729182
4429.624971
4417.272696
4438.209549
4420.988704
4437.589105
4411.698260
4428.147516
4411.032103
4474.733088
4394.484176
4444.481074
4343.006099
4443.147459
4409.309330
4479.012560
4470.568079
4392.518288
4511.273689
4429.640462
4408.826633
4429.375023
4416.692411
4465.882712
4399.535189
4409.046944
4429.411933
4424.377733
4409.227848
4423.416414
4432.703480
4419.155741
4425.998824
4420.509664
4432.173668
4410.326352
4440.544629
4416.620533
4455.877531
4398.112499
4444.871107
4391.256005
4506.716768
4349.286683
4592.435588
4362.271271
4420.486635
4388.172306
4503.123152
4349.848878
4410.940747
4491.647660
4431.964720
4443.871828
4446.795373
4440.708551
4424.000617
4425.397920
4411.807368
4437.874377
4429.155162
4424.610182
4414.978442
4435.776765
4423.632170
4432.966706
4417.060124
4442.752372
4399.955556
4449.277544
4399.476834
4448.934143
4379.582473
4483.986409
4300.866192
4417.470458
4384.078362
4508.746757
4440.415642
4456.504360
4384.789660
4519.014190
4400.532121
4416.908281
4450.123154
4355.086828
4438.131925
4427.349584
4420.933749
4426.327475
4439.755965
4402.413279
4432.145475
4432.629520
4431.674336
4409.784620
4439.946820
4418.210580
4438.169543
4421.578862
4439.906229
4397.244247
4465.371782
4358.251546
4482.404792
4367.204567
4544.241143
4376.958285
4407.035291
4410.472386
4457.173431
4438.037462
4385.343954
4492.470303
4421.725090
4392.068122
4450.303783
4419.368789
4412.353058
4422.498189
4429.875342
4409.578182
4450.976101
4437.984957
4409.159336
4424.894199
4436.231758
4425.686783
4426.186702
4431.113952
4409.808473
4445.294775
4388.670010
4467.083577
4407.655399
4510.358065
4349.349720
4515.917674
4427.426815
4415.838974
4476.127577
4472.528592
4443.534044
4457.214611
4454.216259
4457.925540
4440.695647
4390.013971
4438.941973
4417.095306
4441.516387
4426.247724
4415.973443
4445.674988
4402.256691
4450.978306
4429.239164
4421.741161
4422.204240
4418.714618
4429.388161
4436.483019
4440.136268
4435.340726
4435.668204
4429.830715
4462.895030
4450.505796
4399.614983
4377.865227
4677.763745
4425.853740
4453.926671
4426.005757
4464.740874
4422.876874
4403.587433
4437.997915
4411.054148
4424.549618
4436.700523
4423.810235
4408.351405
4441.439513
4406.619104
4434.977754
4451.084894
4399.621737
4442.603095
4425.458857
4440.011325
4416.169217
4420.553853
4409.021979
4469.487893
4407.165288
4467.651791
4459.782937
4356.960917
4502.139193
4402.726290
4434.171528
4426.882174
4433.296092
4459.465683
4427.802389
4441.662861
4461.055698
4435.990703
4434.424303
4414.226033
4426.132837
4419.934702
4445.280110
4444.934891
4405.193354
4446.113653
4395.585008
4453.772694
4446.568947
4390.829276
4439.423106
4413.607614
4459.814470
4419.520986
4393.249475
4412.144723
4415.522540
4445.711957
4414.724871
4413.785190
4407.701636
4541.147835
4473.442388
4415.031883
4462.557957
4452.751411
4433.899353
4449.241756
4406.876735
4433.077255
4416.236065
4417.937722
4431.014413
4429.662823
4397.966691
4446.526669
4425.874298
4416.483672
4443.284821
4394.875836
4449.445514
4431.454059
4409.812896
4413.424148
4410.657506
4443.634662
4447.850108
4415.365017
4439.290882
4407.829495
4446.872938
4428.084001
4408.871920
4429.301517
4456.371733
4432.418713
4449.226643
4481.308209
4440.906608
4441.667984
4423.674521
4405.480798
4426.864291
4436.191261
4411.373646
4444.460115
4451.255110
4394.396544
4450.376757
4413.559824
4438.148838
4449.705898
4385.882343
4446.183371
4436.224994
4428.582483
4412.251642
4398.633850
4456.304291
4400.837542
4434.536651
4408.501319
4411.761224
4372.529470
4368.962258
4416.118551
4403.736839
4430.276532
4420.356435
4469.507273
4456.080451
4434.587684
4413.509585
4434.024030
4426.042781
4426.493673
4431.533869
4393.013063
4451.509708
4443.407998
4393.679020
4449.360045
4402.870430
4460.878477
4441.564434
4382.136049
4417.194771
4433.225398
4428.840417
4415.123476
4407.645197
4443.687900
4436.171804
4406.442380
4508.095576
4402.698471
4515.010581
4494.460787
4423.996326
4387.116339
4439.973350
4370.970796
4424.595588
4405.849760
4423.855867
4417.373567
4436.449808
4413.215446
4441.922754
4443.399861
4392.343949
4448.532870
4430.417520
4399.778438
4452.343060
4395.566430
4457.873105
4445.973752
4402.926415
4431.627974
4445.688454
4429.582780
4404.461872
4444.394144
4509.025566
4474.372778
4453.192853
4426.202559
4429.044353
4495.421561
4430.546353
4485.943669
4474.814783
4481.135533
4402.745286
4423.768930
4441.017781
4441.570148
4410.803172
4430.903624
4392.368795
4454.086090
4448.173125
4394.698872
4450.230466
4403.786826
4436.487628
4444.611606
4375.071147
4433.374793
4453.428825
4391.284139
4485.110577
4634.026394
4398.520022
4347.997423
4417.872078
4429.789898
4413.274218
4459.071009
4443.554760
4471.211595
4408.119905
4429.255285
4433.381162
4418.890764
4439.211627
4426.684366
4409.920368
4434.158611
4432.764239
4428.870665
4431.318868
4392.553445
4448.182398
4448.134518
4396.337650
4441.983425
4400.803940
4446.224055
4433.878524
4394.807179
4448.655102
4465.638689
4337.267820
4483.646218
4383.143037
4478.216146
4478.943569
4423.009617
4431.834358
4490.304906
4445.342869
4410.897800
4442.152518
4422.964861
4413.469058
4426.307983
4420.856021
4440.748801
4450.928092
4398.687415
4432.927510
4404.659941
4441.041398
4448.553160
4388.833476
4444.745703
4420.557797
4405.100160
4447.226744
4396.740622
4430.817878
4441.257592
4418.774476
4434.868200
4465.738854
4445.171817
4456.901781
4460.912076
4450.384911
4467.750583
4390.247256
4444.913575
4451.926149
4419.824852
4437.501169
4412.877023
4418.966530
4441.527485
4428.643175
4401.958184
4430.511133
4451.115603
4412.777844
4426.609394
4385.341845
4449.492649
4453.838752
4395.574484
4439.365423
4399.035856
4431.260430
4445.559521
4420.271761
4429.496216
4422.895674
4426.675411
4501.032096
4392.934246
4460.088868
4488.903404
4474.564470
4472.372553
4422.647349
4448.968851
4422.227893
4396.707458
4424.420382
4427.517108
4434.315277
4405.141032
4451.187621
4453.863813
4385.171478
4422.371447
4442.319942
4424.915400
4420.098500
4379.229609
4451.579126
4451.310695
4391.273964
4443.759727
4376.592662
4439.779211
4436.199906
4457.739758
4395.586350
4410.148595
4473.421276
4491.561508
4414.922682
4439.962844
4467.705242
4425.537759
4407.039908
4400.967215
4438.018497
4404.819973
4425.989830
4432.892745
4436.467436
4437.411997
4392.185680
4456.198590
4464.164778
4378.222231
4424.494699
4424.661893
4432.474113
4423.819401
4383.025022
4446.462434
4430.836535
4406.778763
4455.590067
4403.558688
4401.971806
4451.333537
4429.612957
4451.431813
4430.059103
4454.747326
4433.152523
4435.464105
4456.344585
4473.123480
4428.083537
4422.019945
4364.023029
4435.517457
4421.968724
4422.459320
4413.230376
4443.975557
4444.449616
4385.230229
4456.706339
4459.376103
4380.130138
4431.525897
4398.648285
4430.810533
4439.787547
4387.468407
4427.453729
4407.992798
4433.318513
4442.150640
4430.176522
4430.961022
4416.680136
4417.320273
4455.821706
4446.310982
4464.662460
4456.140978
4442.363496
4465.278461
4422.439686
4422.819987
4425.318047
4420.071360
4439.547417
4438.542585
4422.189633
4399.899103
4447.909323
4453.963500
4379.046382
4447.396946
4446.603555
4396.670494
4437.759263
4384.213282
4434.377138
4447.768049
4395.018615
4426.586589
4422.633619
4409.702695
4415.311644
4467.543429
4431.715052
4463.412513
4422.677954
4399.796425
4471.155443
4426.561645
4439.142761
4449.740808
4462.339902
4419.203162
4439.506027
4433.135313
4408.274588
4428.059750
4442.763125
4429.303994
4388.103858
4449.805175
4460.264087
4372.110964
4438.961624
4422.697769
4414.385011
4439.887608
4385.268642
4429.907028
4425.281646
4409.456807
4447.277874
4421.866473
4442.571093
4439.808425
4448.947030
4429.929705
4466.727404
4428.271885
4425.252622
4469.132608
4434.552941
4452.692161
4430.652170
4433.002317
4406.373780
4446.071823
4448.028383
4404.334152
4413.817240
4446.642737
4443.795635
4378.658595
4455.038348
4459.343899
4368.746017
4445.239045
4390.679538
4442.692504
4428.905966
4421.409434
4440.120989
4400.060235
4403.896655
4451.172607
4418.543094
4442.844820
4443.879599
4420.517859
4450.567681
4475.729503
4428.007471
4398.407281
4464.235578
4427.017418
4429.430874
4438.513353
4441.956878
4395.309864
4446.903235
4451.162461
4400.839409
4402.398631
4447.335815
4450.911128
4375.396605
4453.518247
4449.579734
4377.965718
4454.894483
4372.604696
4427.429083
4443.745579
4443.023219
4420.172058
4435.390023
4418.505815
4437.986884
4436.446119
4429.568903
4423.433640
4446.592136
4456.041354
4491.723144
4463.026914
4435.324059
4425.372603
4425.869918
4412.818456
4445.823926
4448.622060
4392.175319
4440.565985
4447.225399
4412.988954
4391.799415
4447.458971
4458.011208
4375.736903
4437.516771
4422.535501
4407.747358
4443.859572
4395.081843
4429.001891
4406.436038
4430.887943
4424.293032
4432.678342
4443.214900
4439.671572
4425.720356
4438.483710
4435.627051
4473.197529
4448.360103
4426.784562
4420.849868
4438.977200
4437.067407
4428.565945
4401.184483
4450.107325
4454.324940
4392.545767
4421.872861
4446.652475
4434.949392
4377.854142
4449.742639
4465.545029
4366.840916
4450.055375
4402.683311
4395.795032
4456.745043
4443.945230
4442.499373
4391.070004
4460.437054
4402.791912
4458.253720
4452.377851
4464.675326
4417.881954
4467.021586
4451.182104
4422.078579
4440.483513
4436.681880
4413.517330
4429.973585
4440.433361
4436.629815
4395.103829
4454.878423
4456.573425
4391.982231
4409.560019
4452.399829
4442.073830
4385.913982
4453.940750
4446.542151
4393.809274
4443.881327
4389.956199
4423.555274
4437.355091
4449.256927
4424.416803
4458.197897
4445.228772
4400.607128
4466.289986
4476.569614
4456.912398
4462.278032
4436.846159
4433.618220
4411.524769
4441.176879
4448.370170
4411.844756
4416.395074
4444.580450
4444.421587
4390.851043
4453.064815
4449.252981
4399.460808
4399.825012
4445.679136
4461.597255
4380.566005
4440.101252
4412.961613
4434.261767
4444.747766
4410.715850
4434.278463
4449.984999
4403.008728
4447.170799
4457.933251
4435.592899
4459.871820
4451.840731
4465.432412
4432.922021
4427.994148
4441.702017
4446.183147
4399.732019
4446.275425
4447.775436
4413.283838
4409.578195
4442.660801
4454.534048
4390.134244
4438.062108
4446.957445
4413.897183
4397.151458
4454.112908
4448.561341
4384.073959
4431.285937
4425.540369
4404.545602
4438.662395
4441.372330
4436.036952
4437.765084
4476.591426
4456.037568
4470.910371
4450.544458
4463.811701
4433.396878
4427.753982
4424.616223
4412.723461
4447.423735
4450.472777
4401.465225
4436.739988
4444.136692
4424.935966
4402.628832
4448.000634
4462.144724
4393.121687
4424.551926
4446.620895
4437.607282
4412.347189
4465.564433
4425.564646
4422.005213
4446.339184
4430.599625
4428.918342
4446.539336
4443.409894
4459.853533
4445.601349
4467.619012
4454.327239
4466.188733
4430.196320
4426.888122
4441.306321
4439.200942
4438.145741
4402.362262
4448.936070
4457.722208
4400.787795
4428.780216
4439.873221
4435.561132
4399.917213
4458.054817
4456.294130
4399.594404
4411.433915
4444.123477
4449.610712
4396.180515
4440.964623
4439.197585
4409.477361
4450.433648
4443.123798
4448.711820
4465.587053
4429.844022
4480.410771
4423.444735
4469.000472
4428.587587
4432.973896
4436.889250
4416.422075
4424.051802
4443.293140
4444.661452
4398.279593
4448.727660
4456.434416
4406.948404
4423.304393
4439.224076
4452.966092
4394.825609
4454.827393
4444.694773
4414.822672
4436.395375
4454.266262
4459.280783
4404.659813
4452.934856
4407.695255
4448.043838
4446.898929
4462.467605
4439.981817
4472.181181
4448.616845
4464.122299
4437.813606
4437.962383
4420.812831
4443.774087
4442.125129
4417.575960
4416.249453
4446.059689
4454.441205
4396.410669
4447.690127
4447.336506
4413.731994
4410.274034
4446.968899
4460.417537
4400.888630
4445.826003
4423.437230
4430.449941
4426.046843
4469.265676
4440.552047
4431.395540
4475.776777
4428.988990
4466.927745
4453.630430
4447.717676
4446.854982
4457.195764
4440.103029
4426.584633
4435.558283
4436.748869
4411.029588
4441.996818
4447.717977
4424.344976
4407.201653
4443.396751
4463.546425
4398.317937
4448.096139
4437.691810
4430.053857
4403.730212
4458.489677
4459.667929
4406.059730
4447.859245
4441.183755
4453.987359
4396.957201
4449.192248
4420.158015
4450.626060
4460.997141
4442.211730
4467.687778
4451.352813
4453.889477
4429.295668
4421.979387
4437.205033
4412.901288
4449.750662
4441.622404
4412.339606
4429.383652
4449.350010
4438.823565
4401.461170
4451.243956
4458.466068
4400.163301
4442.104782
4432.900014
4450.086925
4403.055475
4464.170615
4422.201921
4399.558742
4454.711958
4465.150480
4450.312664
4419.287930
4460.101498
4416.263726
4471.946576
4434.912775
4455.031464
4449.500595
4430.625106
4439.954304
4447.418659
4419.657833
4451.102569
4411.963462
4450.660244
4446.208545
4414.261011
4417.506678
4441.337592
4454.971707
4400.490105
4454.799568
4451.381630
4401.620810
4441.303275
4433.718054
4455.732925
4419.144222
4457.674828
4438.433982
4412.635993
4412.456416
4447.321033
4457.741069
4441.647564
4471.934360
4428.001816
4468.733223
4445.994503
4449.304059
4432.058526
4415.744839
4436.236014
4413.498227
4425.451451
4449.184803
4407.912278
4441.618577
4447.443135
4426.231774
4403.819517
4448.716954
4458.504382
4400.936217
4460.257899
4424.685527
4442.766491
4434.482415
4457.896444
4474.110096
4392.898431
4462.244689
4448.590585
4448.412323
4416.435901
4451.960226
4455.575712
4437.253431
4463.347947
4440.647557
4436.148855
4422.284973
4446.760767
4453.754614
4415.084485
4448.712782
4417.885972
4445.690757
4452.804760
4402.009523
4432.582919
4444.724026
4442.574948
4399.883481
4449.748270
4460.434278
4402.875571
4454.711649
4410.452168
4452.910105
4429.885237
4459.613869
4422.301794
4395.965841
4456.706477
4444.988302
4457.721425
4437.466370
4454.019005
4453.501348
4448.708528
4432.105142
4437.144867
4437.718087
4400.586528
4449.352519
4450.463502
4402.256050
4454.319337
4408.267055
4463.626976
4444.883147
4403.135098
4420.736095
4443.124541
4459.419345
4388.719411
4459.779228
4428.917282
4419.882229
4458.642827
4425.303976
4468.607721
4414.746813
4460.389264
4425.710338
4440.884613
4434.561618
4446.671418
4446.682220
4445.355244
4449.773413
4432.423507
4432.401701
4422.072204
4456.970165
4451.588165
4403.567045
4449.009418
4432.559296
4411.861874
4460.961556
4399.838164
4459.606424
4448.467113
4406.424681
4416.627346
4448.616101
4469.489082
4398.532279
4469.105461
4386.046760
4474.342315
4429.173840
4473.123119
4447.984892
4413.661934
4447.974706
4439.720876
4454.017794
4439.031052
4453.518402
4445.742163
4436.618235
4441.529015
4438.795400
4429.131688
4406.139922
4456.653471
4462.282863
4402.515352
4447.821250
4403.822217
4452.693304
4447.528319
4395.276556
4452.272587
4442.873836
4419.772304
4406.080622
4450.278161
4453.384677
4404.791929
4457.227586
4409.087827
4453.585506
4403.556817
4446.666116
4449.042067
4419.579454
4455.550262
4426.924504
4453.053003
4449.565472
4451.409465
4433.261895
4423.872942
4440.774517
4442.194698
4442.515292
4399.826896
4449.395351
4454.696590
4400.268661
4452.155777
4403.031188
4455.194103
4453.137924
4395.795012
4434.338698
4443.313222
4453.324106
4405.844598
4470.033730
4402.606549
4419.287301
4465.731710
4440.640188
4471.946512
4394.300618
4458.093582
4423.291461
4461.152236
4438.231234
4451.634472
4440.236521
4421.969552
4446.112825
4446.045602
4411.759782
4431.278775
4451.382706
4461.247457
4399.146171
4444.597561
4420.774872
4424.684506
4456.999516
4397.091672
4456.298650
4453.741058
4399.234156
4417.790382
4440.371462
4468.656669
4412.876403
4453.253500
4394.601433
4448.910092
4438.742067
4462.262877
4473.040289
4394.312357
4469.117294
4416.618417
4455.997130
4426.807574
4436.312735
4448.071254
4405.544902
4454.348682
4452.484523
4394.525232
4422.108914
4440.015508
4467.138349
4419.714607
4437.673280
4417.676802
4442.547502
4458.234299
4394.328568
4449.027182
4446.819770
4431.815347
4410.196979
4448.242496
4446.167269
4418.132762
4452.521711
4438.071070
4433.398651
4435.101009
4456.273387
4456.252790
4435.387711
4457.838753
4436.537109
4442.865035
4414.912455
4447.669057
4449.637284
4405.601817
4446.042891
4456.247144
4431.819870
4411.500503
4421.062093
4445.580977
4423.741236
4438.222996
4408.128316
4459.893497
4465.726342
4396.180579
4435.262450
4447.115379
4452.449578
4414.840368
4441.500774
4417.578380
4455.801054
4425.729618
4443.977357
4454.692755
4428.760891
4456.179761
4442.101916
4440.023671
4430.621443
4431.191335
4449.501840
4408.588349
4454.129036
4463.322825
4393.238419
4421.801041
4463.861323
4456.942877
4421.425219
4423.016292
4438.551573
4437.056523
4434.216007
4406.429398
4473.945675
4447.596930
4390.252359
4434.117704
4439.028223
4485.268426
4408.343996
4454.672883
4431.381324
4446.155330
4425.855161
4440.496077
4459.451473
4441.269466
4434.113154
4437.615668
4441.690995
4423.788818
4429.727466
4452.828392
4406.288106
4460.595007
4458.913507
4394.739010
4413.745152
4436.653535
4452.600031
4417.851194
4432.117698
4428.744074
4443.728600
4443.667646
4404.511022
4470.397270
4428.244401
4420.704324
4419.206872
4454.091770
4413.010230
4429.540324
4426.306427
4445.298283
4455.173260
4442.520663
4449.098632
4441.684701
4435.706665
4423.618568
4435.792881
4446.571833
4410.653970
4444.589420
4451.080770
4410.051309
4429.824660
4471.525145
4441.821092
4411.135112
4425.029802
4442.444098
4429.641352
4429.279556
4415.214620
4453.922334
4457.450226
4397.434355
4455.465749
4424.863020
4453.358943
4418.039048
4447.783864
4420.601284
4422.003296
4434.087586
4436.738335
4448.445446
4435.211661
4425.194576
4447.538460
4436.130865
4425.399324
4427.858692
4453.168429
4404.609257
4460.848293
4467.807978
4384.220406
4407.616453
4461.693078
4455.346983
4410.580351
4431.012123
4429.830452
4445.885871
4433.370914
4419.451138
4462.820944
4445.269823
4415.520250
4445.868186
4459.304213
4433.859345
4440.973438
4434.100883
4439.315585
4453.733837
4450.004852
4438.232001
4434.150571
4439.669070
4418.424943
4442.342013
4442.549312
4417.895992
4437.810643
4444.323316
4415.305387
4454.490167
4469.836732
4406.119913
4414.371492
4443.536844
4452.068395
4410.965421
4436.114505
4426.935726
4445.174944
4446.489060
4411.118472
4445.214231
4454.989631
4430.229084
4431.583851
4457.295613
4411.691338
4449.666418
4431.946498
4443.715801
4434.763362
4432.348178
4425.121077
4446.616494
4437.348329
4417.661038
4432.993305
4445.596581
4409.808425
4445.111068
4450.915878
4410.225791
4413.125985
4454.505930
4449.369524
4397.198914
4447.358324
4436.780347
4431.634171
4438.270491
4415.784682
4456.500616
4456.736597
4414.763928
4433.985165
4446.577400
4448.398569
4434.239029
4448.390096
4443.714220
4447.864260
4429.365727
4439.708995
4438.076525
4429.696316
4416.827241
4450.954344
4442.901256
4421.822298
4431.228050
4442.672178
4415.590772
4451.157732
4476.928569
4395.461589
4412.744073
4452.300045
4453.120552
4399.643536
4439.268098
4422.515285
4445.512750
4442.490230
4410.486036
4449.491170
4450.653678
4407.129003
4442.638136
4442.399958
4439.554339
4441.748747
4448.231395
4437.694868
4436.875488
4418.856635
4439.578058
4443.020122
4425.395604
4407.069717
4450.218933
4446.614702
4418.268719
4427.874843
4437.018612
4425.901559
4439.057570
4457.967318
4422.879038
4416.493466
4446.469035