# vtk DataFile Version 2.0
mfree iwf
ASCII

DATASET UNSTRUCTURED_GRID
POINTS 6231 float
0.000000 0.000300 0.000000
0.000000 0.000310 0.000000
0.000000 0.000320 0.000000
0.000000 0.000330 0.000000
0.000000 0.000340 0.000000
0.000000 0.000350 0.000000
0.000000 0.000360 0.000000
0.000001 0.000370 0.000000
0.000001 0.000380 0.000000
0.000001 0.000390 0.000000
0.000001 0.000400 0.000000
0.000001 0.000410 0.000000
0.000001 0.000420 0.000000
0.000001 0.000430 0.000000
0.000001 0.000440 0.000000
0.000002 0.000450 0.000000
0.000002 0.000460 0.000000
0.000002 0.000471 0.000000
0.000002 0.000480 0.000000
0.000002 0.000492 0.000000
0.000006 0.000501 0.000000
0.000762 0.000933 0.000000
0.000832 0.000975 0.000000
0.000779 0.000942 0.000000
0.000844 0.000981 0.000000
0.000865 0.000988 0.000000
0.000914 0.000997 0.000000
0.000922 0.000996 0.000000
0.000934 0.000991 0.000000
0.000947 0.000990 0.000000
0.000978 0.000993 0.000000
0.000010 0.000300 0.000000
0.000010 0.000310 0.000000
0.000010 0.000320 0.000000
0.000010 0.000330 0.000000
0.000010 0.000340 0.000000
0.000010 0.000350 0.000000
0.000010 0.000360 0.000000
0.000011 0.000370 0.000000
0.000011 0.000380 0.000000
0.000011 0.000390 0.000000
0.000011 0.000400 0.000000
0.000011 0.000410 0.000000
0.000011 0.000420 0.000000
0.000011 0.000430 0.000000
0.000011 0.000440 0.000000
0.000011 0.000450 0.000000
0.000012 0.000460 0.000000
0.000012 0.000472 0.000000
0.000013 0.000478 0.000000
0.000009 0.000492 0.000000
0.000013 0.000498 0.000000
0.000885 0.000987 0.000000
0.000900 0.000989 0.000000
0.000907 0.000990 0.000000
0.000914 0.000988 0.000000
0.000930 0.000984 0.000000
0.000942 0.000983 0.000000
0.000956 0.000980 0.000000
0.000967 0.000982 0.000000
0.000973 0.000981 0.000000
0.000975 0.000989 0.000000
0.000020 0.000300 0.000000
0.000020 0.000310 0.000000
0.000020 0.000320 0.000000
0.000020 0.000330 0.000000
0.000021 0.000340 0.000000
0.000020 0.000350 0.000000
0.000021 0.000360 0.000000
0.000021 0.000370 0.000000
0.000020 0.000380 0.000000
0.000021 0.000390 0.000000
0.000021 0.000400 0.000000
0.000022 0.000410 0.000000
0.000021 0.000420 0.000000
0.000022 0.000431 0.000000
0.000021 0.000440 0.000000
0.000023 0.000451 0.000000
0.000021 0.000460 0.000000
0.000022 0.000470 0.000000
0.000021 0.000481 0.000000
0.000024 0.000494 0.000000
0.000020 0.000497 0.000000
0.000853 0.000973 0.000000
0.000881 0.000982 0.000000
0.000891 0.000984 0.000000
0.000896 0.000982 0.000000
0.000906 0.000976 0.000000
0.000921 0.000981 0.000000
0.000948 0.000977 0.000000
0.000963 0.000977 0.000000
0.000971 0.000969 0.000000
0.000978 0.000967 0.000000
0.000030 0.000300 0.000000
0.000030 0.000310 0.000000
0.000030 0.000320 0.000000
0.000030 0.000330 0.000000
0.000030 0.000340 0.000000
0.000030 0.000350 0.000000
0.000031 0.000360 0.000000
0.000030 0.000370 0.000000
0.000032 0.000380 0.000000
0.000030 0.000390 0.000000
0.000031 0.000400 0.000000
0.000031 0.000411 0.000000
0.000031 0.000420 0.000000
0.000031 0.000430 0.000000
0.000031 0.000440 0.000000
0.000031 0.000450 0.000000
0.000031 0.000459 0.000000
0.000036 0.000473 0.000000
0.000029 0.000478 0.000000
0.000033 0.000488 0.000000
0.000032 0.000497 0.000000
0.000063 0.000500 0.000000
0.000873 0.000976 0.000000
0.000889 0.000968 0.000000
0.000917 0.000972 0.000000
0.000927 0.000965 0.000000
0.000932 0.000976 0.000000
0.000937 0.000969 0.000000
0.000948 0.000968 0.000000
0.000955 0.000967 0.000000
0.000978 0.000959 0.000000
0.000040 0.000300 0.000000
0.000040 0.000310 0.000000
0.000040 0.000320 0.000000
0.000040 0.000330 0.000000
0.000040 0.000341 0.000000
0.000041 0.000350 0.000000
0.000041 0.000359 0.000000
0.000040 0.000370 0.000000
0.000041 0.000380 0.000000
0.000040 0.000390 0.000000
0.000042 0.000399 0.000000
0.000041 0.000410 0.000000
0.000042 0.000420 0.000000
0.000041 0.000431 0.000000
0.000042 0.000439 0.000000
0.000043 0.000450 0.000000
0.000042 0.000460 0.000000
0.000037 0.000469 0.000000
0.000045 0.000477 0.000000
0.000043 0.000496 0.000000
0.000040 0.000498 0.000000
0.000676 0.000782 0.000000
0.000882 0.000968 0.000000
0.000900 0.000968 0.000000
0.000908 0.000963 0.000000
0.000915 0.000970 0.000000
0.000937 0.000960 0.000000
0.000959 0.000957 0.000000
0.000958 0.000947 0.000000
0.000967 0.000961 0.000000
0.000976 0.000950 0.000000
0.000050 0.000300 0.000000
0.000050 0.000310 0.000000
0.000050 0.000319 0.000000
0.000050 0.000330 0.000000
0.000051 0.000340 0.000000
0.000050 0.000350 0.000000
0.000050 0.000361 0.000000
0.000052 0.000371 0.000000
0.000050 0.000380 0.000000
0.000051 0.000390 0.000000
0.000051 0.000400 0.000000
0.000050 0.000411 0.000000
0.000052 0.000420 0.000000
0.000051 0.000430 0.000000
0.000053 0.000440 0.000000
0.000048 0.000451 0.000000
0.000054 0.000458 0.000000
0.000053 0.000470 0.000000
0.000056 0.000482 0.000000
0.000049 0.000488 0.000000
0.000050 0.000498 0.000000
0.000870 0.000982 0.000000
0.000827 0.000966 0.000000
0.000896 0.000963 0.000000
0.000911 0.000952 0.000000
0.000924 0.000955 0.000000
0.000941 0.000954 0.000000
0.000933 0.000949 0.000000
0.000950 0.000955 0.000000
0.000966 0.000948 0.000000
0.000973 0.000939 0.000000
0.000060 0.000300 0.000000
0.000060 0.000310 0.000000
0.000060 0.000320 0.000000
0.000061 0.000331 0.000000
0.000060 0.000339 0.000000
0.000060 0.000350 0.000000
0.000061 0.000359 0.000000
0.000060 0.000368 0.000000
0.000061 0.000380 0.000000
0.000060 0.000390 0.000000
0.000062 0.000400 0.000000
0.000061 0.000409 0.000000
0.000063 0.000419 0.000000
0.000059 0.000431 0.000000
0.000065 0.000439 0.000000
0.000060 0.000450 0.000000
0.000065 0.000460 0.000000
0.000055 0.000472 0.000000
0.000065 0.000475 0.000000
0.000068 0.000486 0.000000
0.000058 0.000496 0.000000
0.000860 0.000981 0.000000
0.000873 0.000967 0.000000
0.000890 0.000951 0.000000
0.000902 0.000952 0.000000
0.000919 0.000943 0.000000
0.000925 0.000937 0.000000
0.000953 0.000937 0.000000
0.000943 0.000944 0.000000
0.000962 0.000937 0.000000
0.000971 0.000930 0.000000
0.000070 0.000300 0.000000
0.000070 0.000310 0.000000
0.000070 0.000319 0.000000
0.000070 0.000329 0.000000
0.000071 0.000340 0.000000
0.000069 0.000351 0.000000
0.000073 0.000359 0.000000
0.000069 0.000374 0.000000
0.000081 0.000376 0.000000
0.000070 0.000390 0.000000
0.000073 0.000400 0.000000
0.000069 0.000412 0.000000
0.000074 0.000421 0.000000
0.000069 0.000429 0.000000
0.000075 0.000438 0.000000
0.000067 0.000451 0.000000
0.000077 0.000459 0.000000
0.000073 0.000470 0.000000
0.000076 0.000486 0.000000
0.000068 0.000495 0.000000
0.000076 0.000496 0.000000
0.000669 0.000759 0.000000
0.000861 0.000967 0.000000
0.000883 0.000957 0.000000
0.000903 0.000934 0.000000
0.000920 0.000953 0.000000
0.000934 0.000937 0.000000
0.000944 0.000937 0.000000
0.000939 0.000926 0.000000
0.000959 0.000927 0.000000
0.000968 0.000920 0.000000
0.000080 0.000300 0.000000
0.000080 0.000310 0.000000
0.000080 0.000321 0.000000
0.000079 0.000331 0.000000
0.000082 0.000340 0.000000
0.000079 0.000350 0.000000
0.000082 0.000363 0.000000
0.000073 0.000369 0.000000
0.000076 0.000383 0.000000
0.000079 0.000392 0.000000
0.000089 0.000396 0.000000
0.000079 0.000410 0.000000
0.000085 0.000417 0.000000
0.000078 0.000430 0.000000
0.000087 0.000445 0.000000
0.000077 0.000448 0.000000
0.000086 0.000463 0.000000
0.000074 0.000470 0.000000
0.000087 0.000473 0.000000
0.000085 0.000482 0.000000
0.000084 0.000495 0.000000
0.000850 0.000978 0.000000
0.000822 0.000971 0.000000
0.000888 0.000939 0.000000
0.000899 0.000948 0.000000
0.000912 0.000938 0.000000
0.000918 0.000928 0.000000
0.000929 0.000927 0.000000
0.000949 0.000924 0.000000
0.000957 0.000918 0.000000
0.000965 0.000911 0.000000
0.000090 0.000300 0.000000
0.000090 0.000310 0.000000
0.000090 0.000320 0.000000
0.000090 0.000329 0.000000
0.000091 0.000339 0.000000
0.000089 0.000350 0.000000
0.000091 0.000359 0.000000
0.000089 0.000369 0.000000
0.000092 0.000379 0.000000
0.000090 0.000387 0.000000
0.000085 0.000404 0.000000
0.000094 0.000410 0.000000
0.000088 0.000425 0.000000
0.000096 0.000425 0.000000
0.000089 0.000435 0.000000
0.000097 0.000455 0.000000
0.000087 0.000453 0.000000
0.000097 0.000471 0.000000
0.000106 0.000480 0.000000
0.000089 0.000494 0.000000
0.000094 0.000495 0.000000
0.000682 0.000798 0.000000
0.000856 0.000962 0.000000
0.000844 0.000968 0.000000
0.000874 0.000958 0.000000
0.000898 0.000927 0.000000
0.000923 0.000919 0.000000
0.000938 0.000919 0.000000
0.000944 0.000913 0.000000
0.000954 0.000909 0.000000
0.000961 0.000901 0.000000
0.000100 0.000300 0.000000
0.000100 0.000310 0.000000
0.000100 0.000320 0.000000
0.000100 0.000331 0.000000
0.000100 0.000340 0.000000
0.000101 0.000350 0.000000
0.000100 0.000361 0.000000
0.000101 0.000371 0.000000
0.000100 0.000381 0.000000
0.000100 0.000391 0.000000
0.000100 0.000400 0.000000
0.000104 0.000406 0.000000
0.000100 0.000418 0.000000
0.000100 0.000436 0.000000
0.000110 0.000443 0.000000
0.000096 0.000445 0.000000
0.000108 0.000460 0.000000
0.000098 0.000467 0.000000
0.000095 0.000481 0.000000
0.000106 0.000491 0.000000
0.000101 0.000494 0.000000
0.000783 0.000946 0.000000
0.000792 0.000952 0.000000
0.000816 0.000967 0.000000
0.000899 0.000937 0.000000
0.000913 0.000924 0.000000
0.000914 0.000914 0.000000
0.000934 0.000910 0.000000
0.000926 0.000905 0.000000
0.000949 0.000903 0.000000
0.000957 0.000893 0.000000
0.000110 0.000300 0.000000
0.000110 0.000310 0.000000
0.000110 0.000320 0.000000
0.000110 0.000329 0.000000
0.000111 0.000340 0.000000
0.000110 0.000351 0.000000
0.000110 0.000359 0.000000
0.000112 0.000369 0.000000
0.000110 0.000379 0.000000
0.000111 0.000389 0.000000
0.000112 0.000400 0.000000
0.000110 0.000414 0.000000
0.000116 0.000422 0.000000
0.000107 0.000427 0.000000
0.000111 0.000433 0.000000
0.000106 0.000449 0.000000
0.000115 0.000461 0.000000
0.000111 0.000471 0.000000
0.000116 0.000480 0.000000
0.000111 0.000493 0.000000
0.000119 0.000492 0.000000
0.000734 0.000897 0.000000
0.000689 0.000819 0.000000
0.000850 0.000957 0.000000
0.000872 0.000946 0.000000
0.000862 0.000943 0.000000
[...]
POINT_DATA 6231
SCALARS density float 1
LOOKUP_TABLE default
4413.180747
4425.822728
4423.460831
4423.776016
4423.148224
4423.260420
4423.779082
4424.771546
4428.413638
4428.669147
4426.169835
4430.407624
4429.006887
4430.815453
4430.718991
4439.340626
4423.245549
4432.493371
4412.914864
4424.217636
4411.228191
4421.840977
4426.491749
4431.072116
4441.107831
4419.448046
4397.348843
4429.324279
4450.589117
4452.788707
4417.637391
4417.793800
4423.801773
4426.103029
4426.423238
4423.383137
4429.035795
4426.732716
4431.746298
4428.692197
4430.798908
4425.954272
4433.355003
4424.154238
4434.847000
4416.366530
4427.954376
4411.256821
4441.633653
4463.029373
4460.055202
4416.072769
4411.175916
4415.786967
4436.363299
4506.404127
4392.711421
4399.282523
4426.317123
4400.048319
4455.045646
4441.511096
4418.216927
4428.505556
4427.055989
4422.475354
4431.908655
4428.660853
4420.572956
4430.879579
4411.986577
4432.977154
4423.737715
4432.707990
4420.094790
4439.955957
4417.628022
4472.568104
4399.750225
4453.692595
4351.192307
4451.042662
4421.180417
4419.816897
4427.971935
4412.770781
4502.628956
4330.702601
4368.253907
4416.027948
4421.840596
4424.385323
4400.307109
4427.151178
4430.062335
4424.358565
4430.708344
4430.822408
4425.528492
4431.423200
4438.357018
4429.337817
4442.996613
4409.140917
4439.106213
4420.974821
4442.220031
4403.816227
4430.182864
4395.052475
4455.676826
4370.729974
4552.426355
4372.293602
4430.566130
4455.590942
4437.627587
4481.583556
4342.844693
4489.662868
4465.471668
4411.204111
4476.478536
4434.926481
4425.788982
4426.902348
4430.586623
4437.388395
4423.938630
4439.159387
4434.178171
4422.262143
4423.082297
4420.731197
4420.979921
4448.532526
4404.509805
4444.049222
4419.701534
4451.629309
4388.955331
4507.325141
4308.691589
4419.270445
4384.522335
4435.592292
4414.844542
4432.007133
4415.910715
4480.477846
4425.148707
4409.320067
4483.236969
4441.871128
4413.209179
4426.513392
4439.114234
4426.984506
4429.880704
4432.868445
4431.538065
4420.307139
4451.293389
4431.702640
4438.759731
4427.675182
4425.832137
4420.050320
4452.772707
4371.931035
4479.424459
4361.848369
4471.642548
4357.256778
4539.428420
4381.450826
4444.634071
4429.948164
4448.877038
4408.916240
4443.686970
4450.211811
4386.148763
4401.027986
4419.504068
4417.732024
4435.608297
4436.270864
4417.322485
4443.732536
4430.822914
4441.646607
4413.803064
4430.571172
4387.287910
4441.580102
4415.729219
4438.651540
4415.912737
4432.922139
4421.320748
4462.858343
4401.463786
4519.071701
4381.029878
4482.527297
4432.105362
4416.712791
4396.958562
4415.615235
4460.412652
4465.556061
4421.196349
4403.735905
4421.024253
4424.692720
4426.302382
4429.080942
4423.529414
4433.547296
4439.343430
4397.236888
4453.094603
4399.395027
4439.490868
4399.281576
4460.545637
4392.091467
4442.263824
4402.865609
4441.273835
4434.780041
4454.750117
4443.881099
4448.533534
4447.012875
4412.365302
4391.220907
4439.877505
4454.755297
4433.914117
4441.330356
4433.791444
4426.785587
4454.300248
4440.613591
4449.610191
4412.206052
4427.267349
4431.981297
4426.263239
4409.532566
4441.815329
4431.740870
4428.065922
4455.008198
4420.517945
4425.912459
4420.834041
4436.634033
4421.748532
4438.963811
4462.836334
4386.847446
4451.626066
4449.046646
4368.676192
4463.552524
4414.083162
4434.352790
4414.723414
4414.319708
4442.235193
4374.698242
4462.237423
4425.825867
4401.318862
4433.464974
4438.965808
4427.439492
4430.735677
4420.753492
4424.898150
4438.527957
4407.563594
4445.132287
4439.741527
4447.290661
4440.745305
4440.753627
4401.236751
4428.636033
4452.129078
4415.850857
4380.440432
4439.239839
4434.424786
4422.398004
4424.425324
4414.878852
4427.860512
4427.521208
4426.219488
4481.302329
4409.444867
4391.896967
4442.321122
4443.701561
4427.500717
4413.891336
4427.748602
4421.024036
4438.339673
4430.679795
4417.864445
4440.492148
4427.456886
4405.932858
4436.738931
4397.673287
4438.164259
4448.173677
4415.147577
4391.004904
4442.135339
4454.471859
4422.840464
4465.393120
4415.728013
4440.295143
4421.038253
4422.884431
4431.430223
4422.484505
4448.543158
4458.178586
4371.955354
4401.890219
4466.757571
4451.986930
4422.173452
4428.285875
4432.286585
4431.351536
4419.863839
4435.769488
4433.318040
4422.903168
4451.848257
4427.991459
4447.885437
4412.284593
4443.122533
4402.312853
4450.434062
4430.949161
4434.180446
4458.553836
4391.679317
4463.531790
4401.329512
4406.599389
4437.719136
4439.774476
4437.516181
4397.217632
4440.893107
4453.886082
4461.889596
4409.349939
4424.358580
4454.038489
4428.896900
4431.808325
4420.395045
4434.278823
4436.531422
4414.418383
4419.427299
4439.210467
4383.349766
4455.574802
4406.624812
4419.509832
4454.490297
4437.878024
4433.801725
4382.382507
4447.457660
4405.017853
4427.831313
4431.084975
4390.220365
4442.121273
4420.011660
4431.649607
4450.325817
4452.250864
4425.253547
4340.955475
4457.769903
4388.960032
4415.497600
4430.721556
4438.107829
4424.350371
4437.250109
4412.986991
4445.122121
4446.269611
4422.282260
4453.583972
4431.630686
4429.385571
4412.185042
4423.073042
4454.507363
4411.604438
4442.672401
4393.646314
4444.367112
4510.770063
4417.005936
4438.479844
4435.622166
4420.088160
4423.362327
4433.525672
4428.533643
4443.838224
4468.854488
4473.464823
4495.094538
4452.488973
4435.971460
4439.669119
4423.171663
4432.674819
4427.103168
4424.476235
4410.768209
4408.712724
4449.074621
4395.000559
4434.122075
4439.913126
4420.738253
4416.476123
4438.787124
4385.127312
4433.117283
4506.288057
4567.022094
4380.100415
4373.318621
4410.800509
4418.726994
4448.058568
4444.322447
4377.112138
4459.511050
4416.240841
4401.567344
4404.886683
4449.981922
4431.837370
4428.541351
4435.188730
4426.328744
4430.929203
4419.723897
4430.749031
4463.057551
4410.150051
4433.747957
4431.535772
4425.357030
4444.083727
4389.658894
4482.362386
4391.236996
4492.270256
4346.780853
4327.636211
4483.878499
4396.142124
4411.045352
4435.601184
4441.008283
4484.685974
4445.409883
4421.537454
4437.390898
4402.517257
4426.235157
4412.069965
4430.469885
4429.092393
4440.691105
4422.014715
4431.184863
4434.356438
4398.827280
4414.214344
4396.688911
4456.606613
4420.842185
4386.381086
4466.123282
4409.219607
4415.586853
4453.128742
4402.842816
4485.847051
4483.901742
4419.304604
4404.625754
4425.040432
4452.566430
4409.001805
4372.681354
4465.519256
4452.905859
4424.484126
4404.291506
4431.268533
4428.736669
4436.426579
4432.647912
4418.814692
4439.778342
4428.919590
4425.892748
4439.479823
4433.077267
4437.575349
4405.528152
4463.375182
4447.582283
4407.219032
4456.748823
4435.062644
4429.675526
4395.709585
4490.097298
4359.924263
4363.339448
4427.994654
4423.411304
4440.955833
4444.197725
4401.223658
4449.812889
4436.199544
4425.772957
4469.786726
4437.634982
4439.331603
4430.726520
4434.153744
4431.908235
4441.960026
4425.893662
4425.209099
4432.867230
4397.106883
4448.297846
4448.403411
4400.306803
4421.532222
4422.857521
4433.965312
4381.364510
4466.823016
4348.199491
4461.446129
4394.463533
4447.576110
4396.611742
4430.589152
4433.833431
4432.989910
4457.324372
4402.292136
4460.878619
4456.415909
4414.105456
4407.907178
4422.517686
4430.345042
4420.369834
4431.927414
4410.362380
4445.743387
4439.090488
4421.349592
4456.452575
4406.118325
4422.239158
4426.477735
4451.060468
4419.636587
4434.927139
4437.041217
4451.991265
4370.507605
4459.670928
4431.615151
4565.341380
4378.040760
4473.048027
4426.984402
4439.784582
4437.168982
4387.785947
4455.649465
4398.799462
4405.730850
4425.714976
4417.879741
4434.720594
4431.525230
4440.899395
4435.675815
4421.179204
4424.465875
4409.737626
4437.873998
4423.594310
4418.728657
4424.188662
4423.436417
4411.500295
4437.450141
4413.073286
4455.601446
4437.629584
4467.996499
4375.554432
4382.686451
4434.416092
4410.639581
4424.412196
4457.383014
4416.302128
4400.222583
4425.698989
4443.126604
4457.069866
4411.866240
4406.100147
4435.620292
4431.802813
4417.372511
4433.653320
4424.369498
4443.165533
4433.248863
4415.780694
4420.437012
4448.622639
4409.864562
4441.469475
4436.473911
4428.952417
4409.678705
4457.418826
4431.776106
4440.898136
4398.026725
4463.079366
4411.338055
4445.210205
4416.307281
4420.275249
4437.652514
4411.826830
4392.798079
4447.268744
4364.739653
4422.025296
4444.813286
4428.435729
4433.799584
4433.919866
4441.980505
4419.168071
4414.702763
4419.386082
4446.533279
4415.275844
4422.473720
4425.983109
4426.469818
4453.489182
4399.421186
4412.172359
4461.966669
4373.947297
4399.105933
4438.167924
4444.460486
4424.313375
4425.123005
4426.867468
4461.749714
4414.353567
4451.786480
4474.962305
4368.747315
4466.245503
4379.121637
4420.794953
4429.127142
4431.456295
4427.113466
4420.947838
4427.133329
4454.559275
4420.424679
4413.901641
4417.667189
4442.123395
4414.905837
4435.617042
4428.471398
4433.811741
4443.361076
4407.871965
4453.643937
4422.648636
4405.338126
4444.349852
4419.807107
4415.868447
4461.260406
4415.942222
4431.141980
4454.875526
4431.596801
4365.898528
4440.930849
4428.073409
4448.927489
4425.630314
4429.705041
4423.983156
4436.491322
4431.405391
4404.268950
4426.106965
4432.741567
4421.685413
4418.301080
4434.880732
4422.720312
4417.491848
4421.577934
4401.995865
4427.023483
4392.618385
4468.839988
4438.124553
4490.076017
4409.684794
4418.005299
4455.232249
4419.946536
4451.194705
4437.251912
4461.274689
4422.699276
4455.044111
4425.061436
4436.915060
4425.625362
4437.913360
4428.561028
4424.970468
4427.330381
4433.338576
4444.932602
4397.316745
4439.472912
4431.247526
4416.536686
4432.176548
4444.872351
4427.300997
4433.933752
4459.504070
4398.430504
4454.047602
4360.656927
4415.403944
4430.937161
4406.876748
4451.813008
4440.321520
4420.916345
4432.322371
4426.837135
4422.328864
4417.265359
4413.992707
4418.357176
4432.471568
4434.237195
4417.506660
4439.153335
4421.393407
4423.486122
4407.079946
4446.618811
4434.202287
4415.012663
4430.223242
4446.184085
4382.932220
4440.582750
4406.343460
4450.698026
4426.404323
4470.804739
4410.317392
4446.435253
4422.720225
4457.310669
4427.489752
4376.818727
4425.586794
4430.878612
4416.095497
4446.257758
4488.016304
4422.636872
4445.555540
4433.171315
4428.673349
4430.228036
4442.362739
4416.305971
4445.846979
4423.338523
4436.182498
4396.341226
4449.134377
4408.163870
4423.730692
4402.212590
4455.272619
4399.894621
4456.407578
4398.381092
4480.759157
4401.491710
4435.129481
4416.181725
4421.252928
4432.267032
4433.038148
4416.040039
4431.732929
4418.970612
4423.592244
4384.968317
4386.184038
4428.547020
4428.082559
4432.047184
4428.734031
4423.016803
4430.434948
4442.248328
4415.241594
4429.305872
4420.290456
4442.247998
4405.790861
4435.356704
4433.725566
4433.206164
4428.076225
4422.449915
4397.536659
4449.093715
4425.938186
4430.149291
4409.119753
4433.954401
4416.930796
4429.417761
4476.922439
4385.908369
4422.595787
4445.902885
4388.403876
4439.475930
4407.691933
4428.396761
4431.403730
4424.043929
4438.881746
4442.148841
4410.615465
4436.480696
4446.356581
4409.445288
4412.197416
4425.870109
4437.062917
4425.841775
4399.958079
4438.807176
4443.597315
4407.065211
4369.022332
4395.159705
4465.663466
4439.911787
4412.123073
4405.354031
4397.645078
4452.314322
4440.314660
4436.830331
4469.708545
4451.873974
4436.954669
4457.763198
4430.790187
4430.231182
4431.068495
4421.946248
4421.027781
4442.462545
4430.572469
4405.322007
4441.286157
4425.761409
4439.135054
4397.635928
4452.300260
4445.882765
4412.073155
4432.178867
4405.816188
4488.350547
4456.066313
4437.485103
4443.407865
4424.273483
4450.587506
4419.825848
4437.045143
4439.154043
4427.222738
4431.826633
4421.958702
4396.486741
4425.267404
4427.933507
4432.930211
4437.065521
4436.293879
4437.921971
4425.734282
4427.445128
4431.675386
4446.748053
4403.314384
4438.276703
4438.861422
4425.843595
4417.800526
4435.701955
4448.585679
4394.430281
4447.142469
4390.891251
4379.317470
4429.755224
4434.247878
4425.900894
4387.899620
4468.838329
4390.343283
4425.601408
4414.619113
4468.521348
4363.055263
4422.028317
4437.313923
4432.549385
4419.462205
4421.663719
4431.940981
4425.058702
4433.538079
4424.700165
4400.159350
4460.066180
4425.295126
4423.937666
4423.560437
4448.633245
4430.750903
4437.742850
4409.744430
4391.239835
4461.929986
4463.453762
4445.639599
4400.648453
4405.653506
4426.105400
4450.527301
4431.456320
4376.802625
4457.279129
4424.800597
4461.554534
4423.029325
4437.179091
4426.678184
4443.453347
4441.354202
4415.057866
4445.217674
4405.513130
4435.935445
4422.999695
4424.798433
4395.796856
4459.531054
4424.826864
4440.261804
4394.216964
4434.947023
4447.306240
4466.620524
4333.471640
4473.595173
4459.811376
4424.383524
4490.717863
4432.379516
4455.268059
4462.574702
4441.631461
4420.603340
4390.424197
4400.693659
4435.593215
4437.117096
4426.299077
4416.424761
4411.093274
4428.722404
4432.000825
4416.313270
4447.105457
4396.653135
4441.905144
4412.702574
4434.258022
4399.248498
4435.651806
4408.618928
4442.904928
4382.270745
4442.513157
4322.652524
4497.751650
4463.128908
4421.909962
4409.518671
4521.777113
4386.359085
4441.122808
4397.700205
4467.078156
4361.621066
4433.407954
4445.070435
4430.271940
4436.763486
4429.189842
4445.177747
4432.845030
4433.605145
4424.711559
4417.224215
4419.205488
4439.908758
4407.480533
4418.247482
4414.182126
4449.808424
4398.268568
4452.363093
4385.800660
4480.184636
4455.226179
4508.029133
4421.875025
4418.850225
4364.093654
4430.082909
4407.914237
4434.493099
4462.607451
4461.513564
4453.824594
4370.289731
4456.458444
4419.794753
4420.765091
4441.285423
4402.479638
4445.050655
4429.328255
4430.857076
4410.317193
4437.542559
4411.631551
4434.902092
4445.434163
4405.657737
4431.931217
4427.367199
4441.941563
4426.620662
4436.426105
4435.727060
4511.292495
4533.455362
4425.206261
4485.537596
4416.439571
4416.869278
4467.724057
4394.676799
4415.379123
4438.165134
4433.910637
4416.075014
4426.206945
4430.612213
4428.007743
4427.990686
4406.902219
4436.690442
4437.872100
4427.976833
4425.984120
4433.994713
4431.463430
4449.703979
4410.988622
4434.417112
4436.015964
4416.440613
4444.990596
4407.541234
4405.229484
4428.946107
4389.756945
4415.727652
4418.114673
4413.400746
4423.670040
4452.766624
4373.074658
4369.396194
4499.720559
4474.071368
4418.484097
4423.885005
4428.859149
4417.264781
4419.099803
4393.962644
4431.716968
4415.746525
4402.629987
4435.957432
4411.718612
4419.206354
4441.853000
4412.300597
4459.154715
4415.537354
4461.173130
4389.734357
4454.440257
4429.798525
4452.601452
4429.678928
4473.301132
4421.431425
4430.050747
4430.847212
4464.351042
4478.772845
4437.410190
4366.548958
4443.529601
4394.647206
4424.540381
4428.057988
4427.984785
4441.910485
4443.306524
4439.571842
4444.236959
4433.993925
4411.937701
4440.206587
4423.043297
4426.934320
4409.858628
4410.825204
4423.277192
4436.237934
4441.091076
4391.610792
4440.458823
4458.780537
4426.600692
4435.616177
4434.279692
4419.171422
4465.029356
4457.502466
4415.970391
4535.281177
4365.727217
4431.275987
4423.580142
4427.978412
4434.711693
4420.602766
4420.253635
4412.056930
4398.672831
4423.751488
4442.716923
4430.045379
4426.966124
4397.693741
4403.380193
4415.552878
4408.023572
4416.450737
4439.360633
4389.300891
4426.878629
4432.757597
4448.577849
4436.920755
4430.109486
4446.327136
4440.044607
4476.702541
4438.334064
4469.613542
4422.117017
4341.557544
4398.020970
4418.914417
4422.395991
4416.245923
4424.952950
4431.882656
4439.048090
4441.703365
4432.542372
4421.908717
4423.309375
4399.246797
4423.776017
4465.489000
4428.605576
4430.703858
4427.636319
4414.205467
4479.396227
4374.067318
4431.632508
4437.572449
4423.515621
4424.730730
4467.817848
4381.836468
4383.438719
4481.341451
4421.026160
4389.839513
4452.462446
4473.911748
4412.650480
4424.504524
4424.718059
4434.577684
4412.931058
4422.443181
4399.901390
4438.551918
4413.372119
4434.630048
4442.887289
4383.701547
4427.893417
4428.666986
4437.103294
4406.590358
4452.820386
4397.240483
4399.451922
4366.932947
4422.733396
4436.779710
4444.560962
4387.932950
4451.929152
4430.314189
4447.363931
4394.409496
4384.102031
4472.351423
4360.967344
4419.030899
4425.910203
4415.291548
4430.819321
4410.437749
4448.661905
4427.072755
4466.478962
4392.640641
4449.574756
4408.874115
4429.078813
4430.540188
4439.758729
4421.083724
4406.647331
4433.956996
4406.027607
4447.468960
4466.188552
4447.955060
4437.185443
4459.882231
4440.563838
4415.119518
4475.936945
4455.511801
4458.695347
4471.999544
4460.071568
4415.753225
4410.851688
4424.375574
4418.949126
4437.249939
4415.879191
4428.019357
4381.771246
4419.505479
4429.627469
4428.514017
4409.360360
4449.326676
4404.563880
4404.532912
4421.896149
4437.615608
4442.493261
4408.834364
4425.871607
4391.679066
4476.397846
4441.962923
4436.122611
4377.835256
4448.696175
4428.925502
4389.212497
4446.546517
4399.485207
4447.629555
4426.386895
4410.054656
4422.822951
4420.718192
4439.019382
4402.695515
4444.718237
4445.554798
4430.428487
4416.112939
4398.072281
4452.843060
4416.919556
4440.452573
4424.283138
4440.007526
4456.880760
4428.984000
4410.903873
4453.333237
4374.902975
4435.029269
4415.127070
4402.707093
4445.567793
4395.701606
4445.536293
4438.746960
4421.120201
4396.349165
4435.282139
4390.025132
4466.953653
4426.615873
4430.540853
4419.915643
4444.168282
4407.503166
4441.390789
4442.203130
4413.295097
4411.429342
4440.924055
4418.011435
4425.705369
4414.418418
4398.243528
4436.895273
4422.893766
4423.879641
4467.103007
4432.853289
4335.630215
4395.574359
4440.247375
4427.533361
4417.441464
4444.689080
4442.295734
4454.994044
4357.544602
4422.802794
4409.612728
4366.855576
4432.316385
4436.921969
4415.703479
4433.291197
4425.287057
4401.502168
4442.001112
4426.766544
4422.998344
4419.442918
4437.377014
4445.775785
4425.147917
4416.530977
4449.127486
4387.332131
4430.957559
4465.219820
4375.729108
4541.283369
4384.696101
4427.849771
4391.806938
4428.306831
4400.641535
4444.036514
4437.878558
4447.770505
4481.098187
4399.426028
4433.590525
4429.070256
4429.200971
4430.251204
4420.986155
4417.203491
4426.306694
4393.317092
4433.353978
4410.844461
4424.692367
4461.996548
4439.407616
4437.292213
4367.811533
4443.494503
4467.866128
4455.260672
4443.340794
4423.332349
4425.931463
4490.600867
4495.697774
4458.316432
4416.456806
4468.356325
4427.248995
4413.605539
4438.330290
4461.845267
4444.440238
4481.315781
4431.405959
4422.639731
4441.781731
4428.186746
4429.544114
4431.057175
4459.362251
4419.577178
4409.000453
4424.992232
4410.150965
4388.769469
4405.026983
4444.678058
4433.508364
4447.578711
4385.338561
4420.289304
4406.567012
4437.336961
4732.847120
4462.593491
4486.166335
4481.669333
4463.173353
4448.948675
4432.755069
4384.146676
4369.213372
4339.884803
4383.987930
4434.276827
4434.136688
4415.260553
4417.332050
4437.575185
4414.271103
4435.916371
4398.710843
4444.309889
4443.681549
4413.979643
4452.941132
4410.755110
4405.682640
4426.195079
4448.224139
4425.200549
4447.582697
4425.600271
4420.953436
4443.556793
4419.904335
4446.786445
4419.806263
4455.402806
4438.624804
4433.907613
4446.845319
4472.939603
4421.176382
4453.271132
4428.428569
4418.589277
4438.836255
4427.029494
4421.519018
4425.587026
4419.902391
4437.900620
4442.727820
4425.359885
4395.644879
4441.770964
4425.212392
4398.910656
4425.338495
4407.825116
4444.584702
4426.726659
4389.790836
4409.525084
4426.589703
4454.380211
4464.828127
4435.133853
4392.797878
4411.519400
4443.383058
4387.455337
4462.997423
4406.754521
4420.015191
4430.577379
4423.542466
4430.015342
4453.093845
4435.732806
4415.221121
4429.528853
4423.179609
4436.994601
4393.409666
4437.732558
4421.771378
4427.592300
4448.926129
4414.319570
4456.747678
4428.170832
4465.314305
4479.137434
4383.630810
4425.923128
4488.171683
4442.665858
4389.122720
4456.702159
4451.330279
4416.466487
4465.421221
4422.298302
4430.998948
4388.746842
4422.881846
4440.779736
4403.822367
4397.205826
4441.675412
4439.265590
4422.161812
4426.232704
4448.318469
4429.534780
4432.264325
4418.758412
4427.754619
4434.095221
4419.320697
4432.861011
4397.196758
4454.205668