# vtk DataFile Version 2.0
mfree iwf
ASCII

DATASET UNSTRUCTURED_GRID
POINTS 6231 float
0.000000 0.000300 0.000000
0.000000 0.000310 0.000000
0.000000 0.000320 0.000000
0.000000 0.000330 0.000000
0.000000 0.000340 0.000000
0.000000 0.000350 0.000000
0.000001 0.000360 0.000000
0.000001 0.000370 0.000000
0.000001 0.000380 0.000000
0.000001 0.000390 0.000000
0.000001 0.000400 0.000000
0.000001 0.000410 0.000000
0.000001 0.000420 0.000000
0.000001 0.000430 0.000000
0.000002 0.000440 0.000000
0.000002 0.000450 0.000000
0.000002 0.000460 0.000000
0.000002 0.000471 0.000000
0.000002 0.000480 0.000000
0.000002 0.000492 0.000000
0.000006 0.000501 0.000000
0.000347 0.000687 0.000000
0.000376 0.000763 0.000000
0.000353 0.000705 0.000000
0.000383 0.000776 0.000000
0.000396 0.000795 0.000000
0.000431 0.000829 0.000000
0.000437 0.000833 0.000000
0.000449 0.000837 0.000000
0.000461 0.000844 0.000000
0.000493 0.000863 0.000000
0.000010 0.000300 0.000000
0.000010 0.000310 0.000000
0.000010 0.000320 0.000000
0.000010 0.000330 0.000000
0.000010 0.000340 0.000000
0.000010 0.000350 0.000000
0.000011 0.000360 0.000000
0.000011 0.000370 0.000000
0.000011 0.000380 0.000000
0.000011 0.000390 0.000000
0.000011 0.000400 0.000000
0.000011 0.000410 0.000000
0.000011 0.000420 0.000000
0.000011 0.000430 0.000000
0.000012 0.000440 0.000000
0.000012 0.000451 0.000000
0.000012 0.000460 0.000000
0.000012 0.000472 0.000000
0.000013 0.000478 0.000000
0.000010 0.000492 0.000000
0.000013 0.000498 0.000000
0.000412 0.000805 0.000000
0.000422 0.000813 0.000000
0.000428 0.000819 0.000000
0.000435 0.000823 0.000000
0.000452 0.000829 0.000000
0.000461 0.000834 0.000000
0.000474 0.000841 0.000000
0.000483 0.000848 0.000000
0.000488 0.000851 0.000000
0.000489 0.000858 0.000000
0.000020 0.000300 0.000000
0.000020 0.000310 0.000000
0.000020 0.000320 0.000000
0.000020 0.000330 0.000000
0.000020 0.000340 0.000000
0.000020 0.000351 0.000000
0.000021 0.000360 0.000000
0.000021 0.000370 0.000000
0.000020 0.000380 0.000000
0.000022 0.000390 0.000000
0.000020 0.000400 0.000000
0.000022 0.000410 0.000000
0.000020 0.000420 0.000000
0.000023 0.000431 0.000000
0.000020 0.000440 0.000000
0.000024 0.000451 0.000000
0.000021 0.000460 0.000000
0.000022 0.000470 0.000000
0.000021 0.000481 0.000000
0.000024 0.000494 0.000000
0.000020 0.000497 0.000000
0.000395 0.000776 0.000000
0.000411 0.000797 0.000000
0.000418 0.000807 0.000000
0.000426 0.000808 0.000000
0.000438 0.000810 0.000000
0.000446 0.000821 0.000000
0.000470 0.000833 0.000000
0.000481 0.000842 0.000000
0.000494 0.000841 0.000000
0.000501 0.000845 0.000000
0.000030 0.000300 0.000000
0.000030 0.000310 0.000000
0.000030 0.000320 0.000000
0.000031 0.000331 0.000000
0.000030 0.000340 0.000000
0.000032 0.000350 0.000000
0.000030 0.000360 0.000000
0.000031 0.000370 0.000000
0.000030 0.000380 0.000000
0.000031 0.000390 0.000000
0.000031 0.000400 0.000000
0.000032 0.000411 0.000000
0.000031 0.000420 0.000000
0.000032 0.000430 0.000000
0.000031 0.000440 0.000000
0.000031 0.000450 0.000000
0.000031 0.000459 0.000000
0.000037 0.000473 0.000000
0.000030 0.000478 0.000000
0.000033 0.000488 0.000000
0.000032 0.000497 0.000000
0.000063 0.000500 0.000000
0.000411 0.000791 0.000000
0.000425 0.000795 0.000000
0.000450 0.000813 0.000000
0.000459 0.000813 0.000000
0.000458 0.000824 0.000000
0.000468 0.000821 0.000000
0.000476 0.000827 0.000000
0.000486 0.000832 0.000000
0.000505 0.000837 0.000000
0.000040 0.000300 0.000000
0.000040 0.000310 0.000000
0.000040 0.000321 0.000000
0.000040 0.000329 0.000000
0.000040 0.000340 0.000000
0.000040 0.000351 0.000000
0.000041 0.000360 0.000000
0.000041 0.000370 0.000000
0.000041 0.000380 0.000000
0.000040 0.000390 0.000000
0.000042 0.000399 0.000000
0.000041 0.000410 0.000000
0.000042 0.000420 0.000000
0.000040 0.000431 0.000000
0.000042 0.000439 0.000000
0.000043 0.000450 0.000000
0.000043 0.000460 0.000000
0.000037 0.000469 0.000000
0.000045 0.000478 0.000000
0.000043 0.000496 0.000000
0.000040 0.000498 0.000000
0.000346 0.000556 0.000000
0.000425 0.000788 0.000000
0.000437 0.000800 0.000000
0.000445 0.000796 0.000000
0.000446 0.000808 0.000000
0.000468 0.000809 0.000000
0.000488 0.000822 0.000000
0.000496 0.000820 0.000000
0.000497 0.000831 0.000000
0.000508 0.000829 0.000000
0.000050 0.000300 0.000000
0.000050 0.000310 0.000000
0.000050 0.000319 0.000000
0.000049 0.000332 0.000000
0.000051 0.000340 0.000000
0.000050 0.000349 0.000000
0.000052 0.000360 0.000000
0.000049 0.000370 0.000000
0.000052 0.000379 0.000000
0.000050 0.000390 0.000000
0.000053 0.000400 0.000000
0.000049 0.000410 0.000000
0.000053 0.000420 0.000000
0.000051 0.000430 0.000000
0.000054 0.000440 0.000000
0.000047 0.000451 0.000000
0.000055 0.000458 0.000000
0.000053 0.000470 0.000000
0.000056 0.000483 0.000000
0.000049 0.000488 0.000000
0.000050 0.000498 0.000000
0.000402 0.000791 0.000000
0.000377 0.000754 0.000000
0.000435 0.000789 0.000000
0.000455 0.000798 0.000000
0.000464 0.000803 0.000000
0.000477 0.000817 0.000000
0.000477 0.000804 0.000000
0.000484 0.000811 0.000000
0.000502 0.000818 0.000000
0.000512 0.000819 0.000000
0.000060 0.000300 0.000000
0.000060 0.000310 0.000000
0.000060 0.000321 0.000000
0.000060 0.000329 0.000000
0.000062 0.000339 0.000000
0.000059 0.000351 0.000000
0.000063 0.000360 0.000000
0.000059 0.000370 0.000000
0.000063 0.000381 0.000000
0.000058 0.000390 0.000000
0.000064 0.000400 0.000000
0.000059 0.000409 0.000000
0.000065 0.000419 0.000000
0.000058 0.000430 0.000000
0.000066 0.000440 0.000000
0.000060 0.000449 0.000000
0.000066 0.000460 0.000000
0.000055 0.000471 0.000000
0.000064 0.000475 0.000000
0.000068 0.000486 0.000000
0.000059 0.000496 0.000000
0.000396 0.000785 0.000000
0.000415 0.000783 0.000000
0.000439 0.000780 0.000000
0.000447 0.000790 0.000000
0.000461 0.000787 0.000000
0.000474 0.000793 0.000000
0.000498 0.000802 0.000000
0.000491 0.000807 0.000000
0.000505 0.000810 0.000000
0.000516 0.000810 0.000000
0.000070 0.000300 0.000000
0.000070 0.000310 0.000000
0.000070 0.000319 0.000000
0.000070 0.000330 0.000000
0.000072 0.000341 0.000000
0.000067 0.000351 0.000000
0.000076 0.000357 0.000000
0.000067 0.000371 0.000000
0.000074 0.000377 0.000000
0.000069 0.000390 0.000000
0.000074 0.000400 0.000000
0.000068 0.000410 0.000000
0.000075 0.000421 0.000000
0.000067 0.000429 0.000000
0.000075 0.000438 0.000000
0.000066 0.000452 0.000000
0.000077 0.000459 0.000000
0.000073 0.000470 0.000000
0.000076 0.000486 0.000000
0.000068 0.000496 0.000000
0.000076 0.000496 0.000000
0.000346 0.000543 0.000000
0.000406 0.000775 0.000000
0.000427 0.000779 0.000000
0.000457 0.000777 0.000000
0.000465 0.000793 0.000000
0.000481 0.000789 0.000000
0.000486 0.000798 0.000000
0.000493 0.000792 0.000000
0.000509 0.000800 0.000000
0.000519 0.000801 0.000000
0.000080 0.000300 0.000000
0.000080 0.000310 0.000000
0.000080 0.000321 0.000000
0.000081 0.000330 0.000000
0.000080 0.000339 0.000000
0.000080 0.000349 0.000000
0.000075 0.000365 0.000000
0.000083 0.000367 0.000000
0.000081 0.000383 0.000000
0.000078 0.000391 0.000000
0.000087 0.000396 0.000000
0.000078 0.000410 0.000000
0.000084 0.000417 0.000000
0.000079 0.000431 0.000000
0.000087 0.000446 0.000000
0.000077 0.000447 0.000000
0.000085 0.000463 0.000000
0.000074 0.000470 0.000000
0.000087 0.000473 0.000000
0.000085 0.000482 0.000000
0.000084 0.000495 0.000000
0.000389 0.000777 0.000000
0.000370 0.000754 0.000000
0.000441 0.000772 0.000000
0.000449 0.000779 0.000000
0.000468 0.000780 0.000000
0.000477 0.000780 0.000000
0.000487 0.000781 0.000000
0.000502 0.000790 0.000000
0.000512 0.000791 0.000000
0.000522 0.000791 0.000000
0.000090 0.000300 0.000000
0.000090 0.000310 0.000000
0.000090 0.000320 0.000000
0.000090 0.000330 0.000000
0.000090 0.000341 0.000000
0.000092 0.000351 0.000000
0.000089 0.000359 0.000000
0.000092 0.000370 0.000000
0.000088 0.000379 0.000000
0.000092 0.000388 0.000000
0.000087 0.000405 0.000000
0.000094 0.000409 0.000000
0.000088 0.000425 0.000000
0.000096 0.000426 0.000000
0.000089 0.000435 0.000000
0.000097 0.000455 0.000000
0.000087 0.000453 0.000000
0.000097 0.000471 0.000000
0.000106 0.000480 0.000000
0.000089 0.000495 0.000000
0.000095 0.000495 0.000000
0.000346 0.000575 0.000000
0.000404 0.000770 0.000000
0.000391 0.000765 0.000000
0.000420 0.000775 0.000000
0.000462 0.000771 0.000000
0.000477 0.000771 0.000000
0.000496 0.000781 0.000000
0.000504 0.000778 0.000000
0.000515 0.000782 0.000000
0.000525 0.000782 0.000000
0.000100 0.000300 0.000000
0.000100 0.000310 0.000000
0.000100 0.000320 0.000000
0.000100 0.000331 0.000000
0.000101 0.000339 0.000000
0.000099 0.000349 0.000000
0.000101 0.000360 0.000000
0.000100 0.000372 0.000000
0.000101 0.000379 0.000000
0.000102 0.000392 0.000000
0.000099 0.000399 0.000000
0.000103 0.000409 0.000000
0.000100 0.000418 0.000000
0.000100 0.000435 0.000000
0.000109 0.000443 0.000000
0.000096 0.000445 0.000000
0.000107 0.000460 0.000000
0.000098 0.000467 0.000000
0.000095 0.000481 0.000000
0.000106 0.000491 0.000000
0.000101 0.000494 0.000000
0.000355 0.000711 0.000000
0.000357 0.000718 0.000000
0.000368 0.000748 0.000000
0.000454 0.000766 0.000000
0.000469 0.000765 0.000000
0.000483 0.000767 0.000000
0.000495 0.000771 0.000000
0.000498 0.000764 0.000000
0.000515 0.000774 0.000000
0.000527 0.000772 0.000000
0.000110 0.000300 0.000000
0.000110 0.000310 0.000000
0.000110 0.000321 0.000000
0.000110 0.000330 0.000000
0.000110 0.000340 0.000000
0.000111 0.000351 0.000000
0.000111 0.000361 0.000000
0.000110 0.000368 0.000000
0.000112 0.000379 0.000000
0.000109 0.000390 0.000000
0.000112 0.000400 0.000000
0.000111 0.000413 0.000000
0.000115 0.000422 0.000000
0.000107 0.000426 0.000000
0.000112 0.000434 0.000000
0.000107 0.000449 0.000000
0.000115 0.000461 0.000000
0.000111 0.000471 0.000000
0.000116 0.000480 0.000000
0.000111 0.000493 0.000000
0.000119 0.000492 0.000000
0.000346 0.000639 0.000000
0.000346 0.000599 0.000000
0.000401 0.000761 0.000000
0.000427 0.000767 0.000000
0.000423 0.000759 0.000000
[...]
POINT_DATA 6231
SCALARS density float 1
LOOKUP_TABLE default
4404.002912
4423.690904
4421.523909
4423.341712
4425.202221
4426.214810
4426.016434
4426.987455
4429.847002
4428.840265
4426.451858
4431.064215
4429.635462
4429.989951
4430.647489
4440.634290
4422.885661
4432.415754
4412.645690
4423.526308
4411.283376
4434.915136
4424.306737
4426.922023
4437.964014
4423.311396
4409.682424
4442.765905
4439.801456
4445.027221
4417.772977
4407.660090
4422.608934
4423.143608
4420.408680
4422.590982
4428.589028
4425.414670
4418.701988
4427.630177
4430.702035
4424.876633
4432.290724
4425.639811
4436.670651
4415.455536
4428.472781
4409.788187
4442.963817
4460.986028
4460.173949
4415.834433
4395.856997
4375.077947
4409.733658
4479.614470
4398.181488
4412.677769
4418.787119
4418.307251
4438.904822
4461.679547
4415.185733
4432.057507
4420.296898
4430.935351
4429.222075
4415.468792
4430.460135
4441.518130
4421.534353
4428.430410
4429.173331
4433.619308
4415.623324
4442.134467
4416.937253
4474.909309
4399.955761
4454.106634
4352.567625
4449.905625
4420.420712
4421.289120
4417.469976
4404.135588
4558.490709
4372.895345
4375.474499
4457.664091
4401.634014
4423.737417
4403.038804
4422.666459
4423.826950
4420.483788
4424.390146
4428.140862
4439.909611
4423.879291
4421.556452
4418.211924
4441.361827
4410.186294
4438.114299
4421.409357
4442.953392
4402.319421
4430.797587
4391.719999
4457.319836
4370.007739
4555.412393
4370.728729
4431.443515
4452.858804
4464.231497
4469.704407
4387.745620
4482.979818
4413.781845
4405.536687
4513.382612
4450.744872
4428.559549
4428.365489
4439.238671
4441.885600
4417.719877
4434.038555
4418.914697
4439.634696
4424.698591
4436.216799
4409.179315
4448.647855
4400.583318
4443.734053
4416.514895
4449.296224
4386.445347
4507.560315
4310.611502
4419.937992
4384.027450
4523.382327
4410.388154
4355.161176
4490.579696
4472.547520
4426.696491
4380.885741
4421.321482
4393.864345
4424.319980
4436.419459
4426.369166
4412.450351
4426.731355
4432.243390
4435.731899
4405.537867
4447.046324
4404.306716
4436.789730
4419.619611
4441.445097
4399.155074
4462.782311
4357.524460
4481.441130
4355.470715
4478.544011
4362.906769
4535.936221
4383.196065
4443.961337
4419.299194
4449.514402
4368.736048
4452.807060
4445.809653
4403.923213
4448.854701
4442.546025
4417.240410
4422.985857
4432.962696
4438.479939
4446.382932
4415.426188
4451.846398
4412.050059
4439.983188
4422.082933
4451.413022
4404.375139
4440.761074
4425.547230
4439.735346
4422.433962
4473.147303
4403.697599
4517.816774
4370.700640
4482.110451
4431.474452
4421.282189
4398.958490
4427.603406
4448.575804
4416.362701
4405.883396
4419.526385
4413.718950
4444.544620
4428.826074
4422.104253
4431.369494
4420.460432
4415.056179
4441.602619
4423.709014
4428.457855
4445.480551
4406.925185
4435.999304
4406.747963
4432.049239
4412.793192
4434.784906
4443.003337
4460.849456
4437.022337
4462.152593
4447.526423
4412.434530
4387.586864
4641.316595
4437.182962
4430.254724
4478.620842
4460.356802
4430.946643
4439.142599
4447.439442
4429.103805
4413.472748
4426.270845
4430.203769
4416.148287
4436.673075
4433.459750
4420.250652
4433.659903
4418.785512
4446.559003
4434.209866
4405.771527
4428.665419
4415.783277
4438.929904
4464.994084
4391.343252
4452.800995
4451.652116
4359.101319
4466.153615
4412.088845
4432.121355
4410.738963
4429.980332
4405.764514
4417.123628
4431.300328
4399.629461
4436.508519
4433.690052
4440.190576
4425.886258
4432.436965
4433.720205
4427.584330
4400.411787
4443.537978
4423.168984
4432.836187
4423.257947
4418.648056
4447.438697
4405.113253
4425.515028
4458.598457
4414.363814
4376.488669
4443.477774
4436.322224
4425.981549
4426.458660
4415.761104
4625.520963
4445.170640
4425.218545
4471.941001
4433.869819
4441.592821
4462.041658
4403.815561
4416.892709
4417.081637
4430.782725
4428.746286
4416.602186
4430.835552
4439.881408
4442.988195
4405.902853
4436.899062
4420.046920
4437.606171
4441.510640
4435.551366
4429.255064
4395.378781
4446.101856
4447.397069
4417.944977
4471.145080
4414.987909
4437.632536
4419.520888
4429.790858
4432.024445
4417.972979
4403.412450
4399.396493
4455.623232
4412.293594
4493.800193
4465.676603
4408.759767
4429.307969
4430.354072
4438.834540
4432.724615
4407.779074
4415.920064
4445.123394
4440.221751
4416.972875
4442.331837
4399.957398
4444.138062
4398.501416
4440.797285
4423.388052
4446.377667
4460.766763
4388.910018
4465.877077
4399.925999
4413.020825
4473.011355
4564.229695
4430.883945
4390.483882
4440.274701
4469.758203
4400.928409
4406.944313
4424.993830
4446.884270
4437.678212
4423.337462
4424.125086
4421.121943
4439.673451
4444.129118
4409.983664
4415.774176
4440.332355
4434.846963
4427.274818
4433.266875
4431.988525
4435.009273
4425.475154
4371.223703
4437.204716
4393.921310
4419.907183
4438.671787
4394.562520
4435.621403
4410.511424
4425.795317
4462.278367
4432.645263
4402.127405
4393.835478
4429.576558
4404.536035
4417.782278
4430.079596
4428.817315
4434.653943
4430.898804
4420.643348
4412.823832
4430.920551
4442.701136
4423.166391
4404.442691
4436.064456
4428.953677
4431.109826
4426.631260
4410.127425
4442.255324
4420.387964
4445.740398
4496.087804
4420.840680
4419.667605
4448.393364
4414.101663
4423.669341
4425.769733
4423.703481
4446.115929
4446.177945
4465.532076
4469.143109
4432.148573
4428.029664
4436.325611
4436.729804
4411.482564
4421.378619
4443.212448
4429.077656
4407.439381
4439.075635
4425.039462
4442.249419
4399.019954
4442.227499
4408.567515
4439.865122
4386.081982
4410.484097
4502.754297
4569.462744
4388.454565
4373.615493
4409.265004
4411.124431
4448.228861
4448.148783
4395.088440
4464.235180
4440.761968
4392.622831
4411.867089
4435.893075
4428.580063
4435.137289
4413.605772
4445.662571
4442.581915
4396.720310
4424.152632
4436.947959
4429.489139
4401.680823
4442.348512
4414.602049
4445.329891
4389.346699
4461.044470
4413.848621
4483.362436
4353.368800
4329.132416
4506.877416
4394.543404
4417.483865
4427.318137
4432.297740
4474.536307
4469.506389
4422.254605
4408.055159
4430.863909
4423.110152
4411.427390
4425.906265
4440.239881
4432.478020
4414.318691
4423.721647
4440.157742
4443.834929
4403.853050
4424.301191
4441.086262
4423.065857
4394.987631
4442.487413
4418.657596
4432.607829
4412.408556
4416.894277
4498.619927
4490.298339
4422.864174
4403.777144
4437.854401
4449.759366
4429.725598
4388.717009
4429.163195
4437.688404
4406.673954
4417.533965
4446.305899
4421.517481
4434.031699
4425.324578
4425.327974
4442.828056
4428.512494
4424.011527
4414.407589
4440.041240
4437.079011
4404.468706
4431.997437
4450.976677
4425.497633
4438.242981
4395.217600
4450.848005
4406.161334
4468.636399
4330.149346
4358.824212
4432.005092
4412.355108
4420.950954
4391.789444
4390.224144
4457.810561
4426.543536
4443.101254
4450.662589
4419.184162
4422.737015
4433.218427
4429.199339
4428.432228
4440.299993
4416.373358
4439.296916
4424.490474
4428.548289
4413.891173
4455.896078
4408.143176
4411.688172
4409.117973
4444.887369
4406.233616
4449.931047
4326.192073
4477.674720
4390.108900
4450.890518
4399.059738
4421.928264
4409.105396
4432.986458
4464.395888
4380.105083
4464.487843
4449.008882
4434.424393
4389.138407
4422.559239
4428.805184
4430.321254
4428.068533
4420.408239
4428.489108
4440.122606
4412.643637
4437.595137
4411.296209
4436.217931
4407.184876
4460.479361
4406.699592
4442.735225
4391.797890
4448.457183
4460.959229
4490.323843
4427.596328
4560.289313
4388.600378
4479.672627
4462.046291
4420.093715
4457.476865
4428.867599
4395.610171
4405.744626
4413.436952
4485.674811
4391.824753
4426.399157
4425.470351
4425.621672
4436.394220
4428.294896
4423.522992
4427.216455
4436.521496
4418.590697
4435.278267
4398.476582
4444.392099
4379.260410
4447.667599
4427.816342
4409.668340
4401.942226
4472.235177
4361.314224
4393.712928
4490.901835
4489.022351
4391.830536
4448.658259
4422.603451
4392.885596
4422.723476
4427.983723
4459.409885
4393.672249
4382.037669
4421.224738
4440.895652
4431.998827
4420.042466
4415.321455
4431.839790
4430.672760
4418.678246
4418.462086
4432.406634
4445.136378
4408.271689
4458.391757
4411.806488
4420.494681
4474.446559
4391.874907
4477.155094
4402.773768
4474.885077
4413.554545
4444.084110
4392.800499
4417.219289
4400.933957
4430.933426
4446.052482
4437.507147
4359.526891
4394.082389
4455.748100
4430.867626
4427.746041
4411.783407
4439.027678
4438.946842
4409.539724
4410.302957
4443.564911
4433.436785
4398.424362
4444.681089
4397.487680
4443.093817
4443.887745
4406.288010
4420.486836
4397.468426
4452.485842
4389.952505
4450.749722
4455.484783
4431.561791
4477.085708
4481.173290
4462.889442
4432.246971
4489.732512
4378.856076
4504.325943
4401.786916
4430.641410
4425.452914
4427.048339
4437.068620
4434.613310
4409.812992
4432.696736
4441.124162
4391.382277
4437.052836
4447.768058
4392.988736
4469.847952
4382.893363
4439.696084
4417.507805
4421.397949
4443.035309
4422.925806
4424.758088
4411.749200
4418.074161
4397.097361
4483.448036
4388.183881
4445.946597
4424.206838
4382.764824
4375.396486
4495.888411
4422.283732
4437.742654
4424.935139
4427.052968
4427.186805
4410.516198
4440.845352
4425.947918
4418.926941
4441.579845
4413.432877
4419.445356
4404.094177
4457.663903
4366.847207
4435.330217
4385.779100
4459.712718
4384.425709
4416.603810
4450.914349
4512.663572
4421.898501
4404.353409
4422.282489
4391.724641
4465.186982
4453.915693
4460.973924
4414.328454
4449.088244
4438.093975
4458.038215
4428.821210
4425.577997
4423.673949
4438.770486
4435.543998
4417.012218
4408.940195
4439.563298
4409.715617
4424.828891
4436.785765
4408.191515
4449.026981
4419.713067
4428.986906
4472.165817
4383.512148
4489.282127
4377.721492
4417.533662
4429.207241
4406.717588
4505.703616
4432.977414
4435.914454
4430.081998
4439.977960
4439.950189
4433.190454
4416.570722
4415.583761
4422.640959
4441.422009
4428.665240
4425.585142
4400.892820
4447.696114
4442.493107
4407.134134
4425.721450
4412.038675
4406.836677
4434.142275
4431.649856
4400.151587
4392.698262
4420.287725
4401.488517
4417.121292
4374.784454
4494.089038
4462.457098
4660.653587
4419.107609
4432.012590
4455.329260
4419.457186
4458.066238
4418.417468
4459.363642
4397.612625
4429.739377
4434.564971
4433.729639
4409.273846
4437.045039
4448.519104
4414.116880
4407.346682
4430.964248
4425.201124
4423.819569
4430.023589
4411.107840
4411.027472
4428.894898
4447.881668
4428.460514
4434.674307
4444.959790
4429.710513
4423.677920
4416.742067
4412.304726
4406.529395
4418.666197
4458.652680
4445.790302
4440.458327
4434.004163
4452.230036
4377.204086
4424.774182
4429.471905
4419.854693
4445.421964
4436.029868
4409.203295
4430.678831
4438.169210
4431.190188
4409.449559
4413.555989
4427.757097
4412.843056
4445.381154
4417.844354
4397.828932
4396.483860
4443.594515
4393.027670
4421.586198
4427.598675
4405.392498
4428.802526
4415.063713
4409.137222
4453.957248
4456.519460
4409.932131
4458.582701
4421.580274
4448.336746
4410.120931
4423.007990
4422.622958
4432.184923
4408.595106
4440.008404
4446.313741
4406.451412
4405.784647
4437.581340
4423.320016
4426.666998
4415.068050
4418.751467
4390.733052
4488.622104
4440.716768
4473.842007
4386.602170
4383.707365
4492.828514
4444.103965
4408.171428
4467.355758
4464.075099
4488.139409
4459.796917
4439.098812
4453.529039
4411.708201
4438.218924
4452.697629
4427.073638
4435.970934
4420.971806
4436.498257
4445.045174
4387.853910
4444.682821
4441.369015
4413.835776
4400.255614
4430.360211
4399.118877
4451.573255
4436.939961
4395.992163
4394.789925
4406.671233
4450.617658
4440.997884
4442.734597
4449.231531
4406.872161
4467.190671
4474.809761
4439.640887
4453.302420
4429.535367
4417.088748
4406.506094
4435.890659
4397.355383
4427.024856
4427.690155
4432.618921
4427.352904
4411.722809
4439.656170
4447.804070
4379.242954
4444.747725
4431.417217
4419.071683
4445.109984
4385.865978
4416.518950
4407.332767
4454.978305
4433.473074
4451.364086
4377.070205
4394.198401
4422.014047
4441.329319
4499.102897
4459.791962
4427.701427
4442.984864
4451.158258
4430.060774
4485.979915
4348.239497
4437.636354
4434.277409
4427.561865
4426.917030
4424.642545
4435.772801
4434.934578
4394.648757
4445.504930
4430.289439
4408.844301
4418.336587
4410.010873
4416.993687
4443.105101
4396.995291
4443.973201
4395.829288
4407.377973
4437.833025
4465.152645
4439.562595
4376.957091
4451.705868
4442.861796
4424.406628
4467.971943
4438.456238
4423.068881
4444.520115
4442.989144
4405.342495
4437.776002
4424.437783
4440.149315
4428.059653
4423.796202
4410.584960
4419.031591
4459.064066
4379.739511
4440.509713
4440.893455
4421.100245
4438.662040
4399.148686
4429.781445
4424.529817
4412.237178
4465.269701
4412.665449
4446.486491
4511.948123
4480.507378
4473.365190
4441.983768
4448.277285
4442.381120
4410.122292
4390.427363
4363.921863
4371.553837
4425.316819
4430.032174
4428.691875
4429.679910
4423.976855
4428.287230
4445.680515
4415.099035
4390.072344
4446.880202
4444.873210
4376.321438
4434.675769
4401.857060
4424.300318
4435.422369
4409.008207
4424.845694
4426.245545
4406.827002
4415.469985
4404.784992
4493.127638
4478.576467
4464.359616
4449.990370
4430.214244
4452.013701
4462.465801
4398.964985
4506.082816
4450.939487
4428.322459
4437.491492
4428.864795
4437.755346
4431.584351
4405.071152
4438.799752
4426.948679
4428.658075
4392.924843
4436.261195
4451.368345
4397.743460
4442.409901
4387.500457
4458.043850
4411.260650
4439.492978
4448.602624
4467.740970
4411.257688
4476.018801
4433.575114
4444.339380
4474.435703
4468.537521
4474.621685
4449.647488
4406.615794
4443.011510
4433.009452
4427.246449
4429.434950
4424.788140
4432.554884
4415.021773
4438.692035
4421.982667
4394.650777
4403.121607
4445.087623
4426.900810
4388.507110
4444.632237
4427.650410
4425.794630
4429.744846
4426.293897
4403.024973
4467.873624
4416.074503
4488.392177
4455.813176
4421.339588
4451.612570
4461.876024
4442.436032
4472.742938
4436.232640
4406.485698
4411.475156
4417.804277
4429.026255
4421.000349
4440.109121
4428.196977
4425.991112
4416.162566
4429.832805
4441.678131
4451.023277
4411.657746
4399.680915
4441.498441
4443.875699
4409.080553
4432.762498
4406.445389
4442.952353
4430.834876
4444.393763
4437.591404
4440.193960
4429.877567
4460.104945
4417.942504
4446.877765
4430.237882
4477.099891
4402.750990
4445.893316
4452.964885
4424.956319
4429.009416
4424.765233
4416.744914
4410.805499
4460.554493
4408.643942
4417.960044
4438.428231
4390.385060
4444.899707
4426.365964
4405.239078
4384.831845
4437.034886
4450.495480
4420.453038
4412.300148
4417.954498
4408.672168
4433.337068
4418.007917
4415.640248
4456.796378
4432.660096
4438.822458
4442.379427
4447.829310
4451.604790
4443.357139
4443.592269
4434.944756
4420.629638
4423.452072
4442.540799
4433.059860
4417.492223
4412.931656
4440.734013
4433.188047
4430.968310
4445.076541
4400.694332
4418.578803
4432.076205
4418.113663
4414.181025
4434.945068
4406.853027
4427.024131
4436.509424
4415.597950
4440.639023
4449.417584
4445.491935
4432.828769
4456.211548
4442.340701
4452.258094
4432.689421
4457.862065
4466.355036
4444.523734
4420.101279
4435.937680
4404.693024
4421.770385
4427.903951
4418.003762
4404.386865
4413.915731
4439.437627
4393.985437
4439.497130
4417.071553
4409.040568
4418.943585
4421.141175
4415.769555
4444.434185
4398.688048
4452.983256
4408.538288
4435.720858
4423.957477
4474.771226
4428.991483
4438.802676
4436.780148
4418.656183
4437.028285
4486.119905
4376.402134
4454.355842
4422.260097
4437.284292
4422.505953
4439.831756
4441.047457
4450.546658
4420.465140
4441.816528
4412.008976
4426.444348
4444.051309
4396.438676
4416.496218
4422.476607
4408.803483
4447.363250
4436.550618
4440.916360
4417.352559
4437.378845
4439.388657
4427.551755
4451.704072
4429.560468
4434.225479
4435.847236
4434.036287
4447.168535
4458.502475
4402.918449
4457.373186
4426.674853
4427.064025
4413.322577
4425.801937
4389.547476
4450.417120
4412.897855
4433.862023
4400.318023
4435.744783
4383.339515
4425.559257
4443.933690
4435.814166
4410.673474
4427.542501
4410.518803
4435.737948
4429.998417
4417.929806
4427.763686
4418.465389
4435.944479
4434.526136
4457.513170
4435.253443
4448.560959
4441.753898
4425.926570
4454.714293
4430.926556
4423.455508
4420.428282
4432.882913
4440.976388
4415.063827
4445.685886
4411.099898
4467.568109
4386.614284
4458.372887
4387.567575
4453.717668
4377.746837
4441.203114
4419.575608
4430.744797
4412.493041
4418.541874
4450.430294
4418.587091
4426.512770
4452.610830
4432.114497
4434.613780
4431.264076
4447.337692
4449.291673
4424.442243
4483.227385
4454.599945
4387.254289
4420.363816
4423.740546
4430.575650
4389.050025
4428.670245
4410.747367
4423.805634
4438.005216
4440.485018
4435.919812
4440.862135
4404.157997
4430.626897
4461.774718
4427.322209
4417.906877
4440.241061
4447.251080
4424.966566
4404.698067
4440.025030
4440.113597
4388.711928
4437.867350
4427.531123
4456.905095
4414.778493
4396.237202
4441.578219
4486.548309
4409.224503
4427.297522
4430.061997
4426.240454
4425.404757
4447.292478
4429.304882
4442.846241
4411.339869
4408.651766
4433.448961
4457.627451
4443.708367
4404.467262
4377.016185
4408.611662
4466.968204
4414.114605
4443.538016
4406.398385
4427.220478
4433.442496
4445.733864
4445.727753
4475.321451
4395.404120
4473.493605
4447.602851
4474.125720
4429.214724
4451.274705
4522.633016
4424.550707
4426.145084
4421.047296
4419.451238
4401.547469
4441.257940
4428.218586
4416.857610
4420.371611
4447.715377
4386.137135
4390.524479
4458.353589
4461.159912
4409.194818
4442.911993
4424.344796
4403.128876
4439.190499
4445.875113
4383.302317
4460.997419
4408.427912
4443.172925
4462.372337
4436.506836
4417.517488
4424.017454
4496.829689
4446.367940
4459.211799
4429.705061
4432.404834
4440.703369
4434.826721
4430.878878
4423.910497
4424.063166
4417.259688
4447.754433
4432.602803
4454.980484
4450.935883
4373.803487
4414.512439
4428.629869
4402.293138
4438.265916
4444.477164
4412.595886
4443.465058
4431.159602
4429.345522
4436.535102
4436.410832
4440.149107
4453.892212
4494.994799
4462.275168
4421.989479
4437.061839
4465.279466
4439.837473
4428.335755
4428.138231
4416.247804
4431.872402
4419.793744
4422.195190
4445.769987
4410.946893
4400.509556
4421.587159
4417.505013
4445.670313
4455.818243
4366.645569
4458.272760
4443.760099
4438.755992
4433.138053
4442.292925
4437.589240
4443.899318
4431.743481
4446.535748
4440.856084
4418.171359
4451.582319
4448.374174
4485.293407
4440.383230
4464.307813
4438.592162
4420.180752
4446.054202
4446.147622
4423.917831
4444.547731
4438.569102
4412.871067
4449.318629
4427.328027
4434.071937
4427.345815
4401.424162
4435.345060
4460.306867
4443.820400
4398.909796
4454.408576
4409.942612
4406.451896
4453.594056
4437.560007
4434.990834
4448.208716
4451.889856
4451.367234
4461.241160
4449.804969
4451.697921
4456.143769
4470.618990
4428.540453
4436.242151
4428.162683
4410.895293
4439.553121
4395.559677
4398.530138
4442.179374
4427.338526
4442.137304
4414.048964
4454.495173
4429.578443
4430.561822
4447.960374
4393.627120
4431.493132
4434.286570
4444.322581
4415.724881
4436.882176
4436.901894
4437.490420
4420.452505
4452.089141
4456.272423
4445.241369
4472.178380
4486.929319
4416.000765
4469.203048
4430.926699
4430.557156
4430.594292
4420.468868
4443.749630
4419.481717
4453.322158
4403.164443
4381.835835
4474.182055
4398.488919
4453.324221
4437.626822
4400.872232
4387.786201
4447.055317
4456.398675
4407.205126
4442.223782
4435.891815
4430.004218
4458.781317
4441.930500
4427.487166
4460.123447
4426.481840
4456.447937
4446.863233
4451.895350
4463.213921
4458.193371
4439.617278
4427.473321
4430.961657
4452.311774
4402.925245
4456.689188
4443.938350
4438.741369
4444.721998
4402.693169
4408.324037
4397.129947
4453.661275
4456.264948
4447.109575
4427.414157
4410.067699
4446.279900
4423.178135
4427.171256
4442.457261
4435.879646
4430.717421
4446.014052
4440.321922
4437.835339
4450.606684
4446.247464
4466.695576
4461.810580
4453.539906
4436.691827
4425.734457
4414.892350
4424.415711
4434.731855
4443.676064
4403.065706
4443.588547
4420.679615
4441.457823
4454.627389
4452.565261
4447.425969
4457.594076
4383.190558
4457.302222
4446.740220
4449.986172