# vtk DataFile Version 2.0
mfree iwf
ASCII

DATASET UNSTRUCTURED_GRID
POINTS 6231 float
0.000000 0.000300 0.000000
0.000000 0.000310 0.000000
0.000000 0.000320 0.000000
0.000000 0.000330 0.000000
0.000000 0.000340 0.000000
0.000001 0.000350 0.000000
0.000001 0.000360 0.000000
0.000001 0.000370 0.000000
0.000001 0.000380 0.000000
0.000001 0.000390 0.000000
0.000001 0.000400 0.000000
0.000001 0.000410 0.000000
0.000001 0.000421 0.000000
0.000001 0.000431 0.000000
0.000002 0.000441 0.000000
0.000002 0.000451 0.000000
0.000002 0.000461 0.000000
0.000002 0.000471 0.000000
0.000002 0.000480 0.000000
0.000002 0.000492 0.000000
0.000006 0.000501 0.000000
0.000293 0.000638 0.000000
0.000307 0.000717 0.000000
0.000295 0.000656 0.000000
0.000312 0.000731 0.000000
0.000322 0.000751 0.000000
0.000351 0.000791 0.000000
0.000356 0.000795 0.000000
0.000368 0.000801 0.000000
0.000379 0.000810 0.000000
0.000408 0.000834 0.000000
0.000010 0.000300 0.000000
0.000010 0.000310 0.000000
0.000010 0.000320 0.000000
0.000010 0.000330 0.000000
0.000010 0.000340 0.000000
0.000010 0.000350 0.000000
0.000011 0.000360 0.000000
0.000011 0.000370 0.000000
0.000011 0.000380 0.000000
0.000011 0.000390 0.000000
0.000011 0.000400 0.000000
0.000011 0.000411 0.000000
0.000011 0.000420 0.000000
0.000011 0.000430 0.000000
0.000012 0.000440 0.000000
0.000012 0.000451 0.000000
0.000012 0.000460 0.000000
0.000012 0.000472 0.000000
0.000013 0.000478 0.000000
0.000010 0.000492 0.000000
0.000013 0.000498 0.000000
0.000336 0.000764 0.000000
0.000344 0.000773 0.000000
0.000350 0.000781 0.000000
0.000356 0.000784 0.000000
0.000372 0.000794 0.000000
0.000379 0.000801 0.000000
0.000391 0.000809 0.000000
0.000399 0.000817 0.000000
0.000403 0.000822 0.000000
0.000405 0.000829 0.000000
0.000020 0.000300 0.000000
0.000020 0.000310 0.000000
0.000020 0.000320 0.000000
0.000020 0.000330 0.000000
0.000020 0.000340 0.000000
0.000021 0.000351 0.000000
0.000020 0.000360 0.000000
0.000021 0.000370 0.000000
0.000020 0.000380 0.000000
0.000021 0.000390 0.000000
0.000021 0.000400 0.000000
0.000022 0.000410 0.000000
0.000020 0.000420 0.000000
0.000023 0.000431 0.000000
0.000020 0.000440 0.000000
0.000024 0.000451 0.000000
0.000021 0.000460 0.000000
0.000022 0.000470 0.000000
0.000021 0.000481 0.000000
0.000024 0.000494 0.000000
0.000020 0.000497 0.000000
0.000324 0.000732 0.000000
0.000335 0.000755 0.000000
0.000342 0.000766 0.000000
0.000350 0.000770 0.000000
0.000362 0.000772 0.000000
0.000369 0.000786 0.000000
0.000389 0.000801 0.000000
0.000398 0.000811 0.000000
0.000411 0.000814 0.000000
0.000417 0.000818 0.000000
0.000030 0.000300 0.000000
0.000030 0.000310 0.000000
0.000030 0.000320 0.000000
0.000031 0.000331 0.000000
0.000030 0.000340 0.000000
0.000031 0.000349 0.000000
0.000030 0.000360 0.000000
0.000031 0.000370 0.000000
0.000030 0.000380 0.000000
0.000032 0.000391 0.000000
0.000030 0.000400 0.000000
0.000032 0.000411 0.000000
0.000031 0.000420 0.000000
0.000032 0.000430 0.000000
0.000031 0.000440 0.000000
0.000031 0.000450 0.000000
0.000032 0.000459 0.000000
0.000037 0.000473 0.000000
0.000030 0.000478 0.000000
0.000033 0.000488 0.000000
0.000032 0.000497 0.000000
0.000063 0.000500 0.000000
0.000341 0.000751 0.000000
0.000351 0.000758 0.000000
0.000368 0.000780 0.000000
0.000382 0.000780 0.000000
0.000380 0.000789 0.000000
0.000389 0.000790 0.000000
0.000397 0.000797 0.000000
0.000406 0.000803 0.000000
0.000423 0.000811 0.000000
0.000040 0.000300 0.000000
0.000040 0.000310 0.000000
0.000040 0.000321 0.000000
0.000040 0.000329 0.000000
0.000040 0.000340 0.000000
0.000040 0.000351 0.000000
0.000041 0.000360 0.000000
0.000041 0.000369 0.000000
0.000041 0.000380 0.000000
0.000039 0.000390 0.000000
0.000042 0.000399 0.000000
0.000041 0.000410 0.000000
0.000042 0.000420 0.000000
0.000040 0.000431 0.000000
0.000042 0.000439 0.000000
0.000043 0.000450 0.000000
0.000043 0.000460 0.000000
0.000037 0.000470 0.000000
0.000045 0.000478 0.000000
0.000043 0.000496 0.000000
0.000040 0.000498 0.000000
0.000293 0.000543 0.000000
0.000352 0.000748 0.000000
0.000362 0.000761 0.000000
0.000368 0.000764 0.000000
0.000374 0.000772 0.000000
0.000391 0.000777 0.000000
0.000407 0.000792 0.000000
0.000416 0.000793 0.000000
0.000416 0.000803 0.000000
0.000427 0.000804 0.000000
0.000050 0.000300 0.000000
0.000050 0.000310 0.000000
0.000050 0.000319 0.000000
0.000049 0.000331 0.000000
0.000052 0.000340 0.000000
0.000050 0.000349 0.000000
0.000052 0.000360 0.000000
0.000049 0.000371 0.000000
0.000053 0.000379 0.000000
0.000050 0.000390 0.000000
0.000053 0.000400 0.000000
0.000049 0.000410 0.000000
0.000054 0.000420 0.000000
0.000050 0.000430 0.000000
0.000054 0.000440 0.000000
0.000047 0.000451 0.000000
0.000055 0.000459 0.000000
0.000053 0.000470 0.000000
0.000056 0.000483 0.000000
0.000049 0.000488 0.000000
0.000050 0.000498 0.000000
0.000328 0.000748 0.000000
0.000310 0.000708 0.000000
0.000363 0.000752 0.000000
0.000379 0.000762 0.000000
0.000386 0.000770 0.000000
0.000399 0.000785 0.000000
0.000400 0.000774 0.000000
0.000407 0.000781 0.000000
0.000423 0.000791 0.000000
0.000433 0.000794 0.000000
0.000060 0.000300 0.000000
0.000060 0.000310 0.000000
0.000061 0.000321 0.000000
0.000060 0.000329 0.000000
0.000061 0.000339 0.000000
0.000059 0.000351 0.000000
0.000062 0.000360 0.000000
0.000060 0.000369 0.000000
0.000063 0.000381 0.000000
0.000058 0.000390 0.000000
0.000064 0.000399 0.000000
0.000059 0.000409 0.000000
0.000064 0.000419 0.000000
0.000058 0.000431 0.000000
0.000066 0.000440 0.000000
0.000060 0.000449 0.000000
0.000066 0.000460 0.000000
0.000055 0.000471 0.000000
0.000065 0.000475 0.000000
0.000068 0.000486 0.000000
0.000059 0.000496 0.000000
0.000324 0.000742 0.000000
0.000341 0.000742 0.000000
0.000366 0.000746 0.000000
0.000376 0.000752 0.000000
0.000386 0.000759 0.000000
0.000400 0.000765 0.000000
0.000418 0.000774 0.000000
0.000417 0.000780 0.000000
0.000428 0.000783 0.000000
0.000438 0.000786 0.000000
0.000070 0.000300 0.000000
0.000070 0.000310 0.000000
0.000070 0.000319 0.000000
0.000070 0.000330 0.000000
0.000072 0.000342 0.000000
0.000069 0.000349 0.000000
0.000072 0.000359 0.000000
0.000068 0.000372 0.000000
0.000073 0.000378 0.000000
0.000070 0.000390 0.000000
0.000074 0.000401 0.000000
0.000068 0.000411 0.000000
0.000075 0.000422 0.000000
0.000067 0.000429 0.000000
0.000075 0.000438 0.000000
0.000066 0.000452 0.000000
0.000077 0.000459 0.000000
0.000073 0.000470 0.000000
0.000076 0.000486 0.000000
0.000068 0.000496 0.000000
0.000076 0.000496 0.000000
0.000293 0.000528 0.000000
0.000336 0.000734 0.000000
0.000356 0.000740 0.000000
0.000383 0.000745 0.000000
0.000393 0.000757 0.000000
0.000405 0.000758 0.000000
0.000411 0.000767 0.000000
0.000421 0.000765 0.000000
0.000432 0.000775 0.000000
0.000443 0.000777 0.000000
0.000080 0.000300 0.000000
0.000080 0.000310 0.000000
0.000080 0.000321 0.000000
0.000081 0.000330 0.000000
0.000080 0.000339 0.000000
0.000081 0.000350 0.000000
0.000080 0.000361 0.000000
0.000080 0.000369 0.000000
0.000082 0.000382 0.000000
0.000078 0.000390 0.000000
0.000084 0.000398 0.000000
0.000079 0.000409 0.000000
0.000083 0.000417 0.000000
0.000079 0.000431 0.000000
0.000087 0.000446 0.000000
0.000077 0.000447 0.000000
0.000086 0.000463 0.000000
0.000075 0.000470 0.000000
0.000087 0.000473 0.000000
0.000086 0.000483 0.000000
0.000084 0.000495 0.000000
0.000318 0.000732 0.000000
0.000303 0.000707 0.000000
0.000369 0.000737 0.000000
0.000379 0.000741 0.000000
0.000394 0.000747 0.000000
0.000407 0.000750 0.000000
0.000415 0.000754 0.000000
0.000429 0.000764 0.000000
0.000437 0.000766 0.000000
0.000447 0.000768 0.000000
0.000090 0.000300 0.000000
0.000090 0.000310 0.000000
0.000090 0.000320 0.000000
0.000090 0.000330 0.000000
0.000090 0.000341 0.000000
0.000091 0.000351 0.000000
0.000090 0.000359 0.000000
0.000091 0.000370 0.000000
0.000089 0.000380 0.000000
0.000092 0.000389 0.000000
0.000092 0.000403 0.000000
0.000091 0.000411 0.000000
0.000089 0.000424 0.000000
0.000097 0.000427 0.000000
0.000088 0.000435 0.000000
0.000097 0.000456 0.000000
0.000087 0.000453 0.000000
0.000097 0.000471 0.000000
0.000106 0.000480 0.000000
0.000089 0.000495 0.000000
0.000095 0.000495 0.000000
0.000293 0.000558 0.000000
0.000334 0.000729 0.000000
0.000323 0.000722 0.000000
0.000350 0.000736 0.000000
0.000393 0.000738 0.000000
0.000406 0.000742 0.000000
0.000422 0.000752 0.000000
0.000431 0.000753 0.000000
0.000441 0.000757 0.000000
0.000451 0.000759 0.000000
0.000100 0.000300 0.000000
0.000100 0.000310 0.000000
0.000100 0.000320 0.000000
0.000100 0.000331 0.000000
0.000100 0.000340 0.000000
0.000100 0.000349 0.000000
0.000101 0.000360 0.000000
0.000101 0.000371 0.000000
0.000100 0.000379 0.000000
0.000102 0.000391 0.000000
0.000098 0.000399 0.000000
0.000103 0.000408 0.000000
0.000101 0.000417 0.000000
0.000100 0.000436 0.000000
0.000109 0.000443 0.000000
0.000097 0.000445 0.000000
0.000107 0.000460 0.000000
0.000098 0.000467 0.000000
0.000095 0.000481 0.000000
0.000106 0.000491 0.000000
0.000101 0.000494 0.000000
0.000295 0.000661 0.000000
0.000296 0.000669 0.000000
0.000303 0.000701 0.000000
0.000384 0.000732 0.000000
0.000399 0.000734 0.000000
0.000412 0.000736 0.000000
0.000423 0.000742 0.000000
0.000431 0.000740 0.000000
0.000443 0.000750 0.000000
0.000455 0.000750 0.000000
0.000110 0.000300 0.000000
0.000110 0.000310 0.000000
0.000110 0.000321 0.000000
0.000110 0.000330 0.000000
0.000110 0.000340 0.000000
0.000111 0.000351 0.000000
0.000111 0.000361 0.000000
0.000110 0.000369 0.000000
0.000111 0.000379 0.000000
0.000110 0.000390 0.000000
0.000112 0.000400 0.000000
0.000111 0.000413 0.000000
0.000115 0.000423 0.000000
0.000106 0.000427 0.000000
0.000113 0.000434 0.000000
0.000107 0.000450 0.000000
0.000116 0.000461 0.000000
0.000111 0.000471 0.000000
0.000116 0.000480 0.000000
0.000111 0.000493 0.000000
0.000119 0.000492 0.000000
0.000293 0.000597 0.000000
0.000293 0.000578 0.000000
0.000332 0.000718 0.000000
0.000358 0.000729 0.000000
0.000355 0.000721 0.000000
[...]
POINT_DATA 6231
SCALARS density float 1
LOOKUP_TABLE default
4400.676665
4423.656262
4419.593341
4422.867911
4426.209560
4425.491159
4425.535230
4425.639730
4427.149399
4427.746619
4424.566308
4428.459779
4429.263715
4430.043131
4430.325809
4440.396527
4422.672777
4432.227465
4412.936511
4423.522500
4411.404429
4484.833988
4422.267448
4434.010354
4438.376826
4435.657543
4402.353571
4434.652916
4436.128159
4453.043849
4417.591119
4404.745177
4420.741592
4422.952369
4425.765369
4420.495629
4425.110871
4425.065700
4419.433400
4428.206212
4433.458632
4429.158588
4432.782098
4426.021436
4435.796262
4415.261576
4428.778176
4409.957505
4443.076035
4460.734020
4460.426360
4415.697752
4393.130304
4385.289524
4406.298597
4462.787181
4383.551354
4401.729621
4419.859472
4414.060666
4434.183997
4462.974153
4414.039766
4430.962566
4420.441758
4423.748467
4423.371108
4425.912180
4428.552708
4439.497326
4425.018330
4417.254520
4427.418354
4431.051304
4414.491646
4442.508382
4415.941355
4474.677650
4399.595496
4454.036949
4352.510612
4449.686537
4420.043493
4415.178645
4400.124094
4397.576910
4524.069202
4336.002871
4417.152528
4455.602951
4407.119395
4430.818393
4400.214556
4420.031348
4420.313208
4418.992741
4426.412475
4432.888744
4432.623550
4416.301812
4421.594253
4417.684047
4452.022457
4412.836607
4439.203170
4422.736089
4443.313720
4402.973815
4431.194146
4390.326077
4457.588978
4369.327013
4556.179016
4370.229264
4431.663922
4521.705896
4459.253206
4462.265280
4379.788723
4495.954999
4419.969206
4410.716221
4512.672714
4449.373937
4426.458062
4426.129161
4440.201578
4434.611782
4414.647414
4426.322524
4431.158356
4444.024489
4414.487668
4438.419524
4397.736308
4450.489646
4398.445255
4443.488600
4415.099828
4450.274561
4387.785427
4507.230493
4311.028498
4419.771898
4384.089040
4560.778768
4367.710316
4399.601536
4468.542340
4460.948714
4427.073351
4380.577357
4435.586205
4374.374371
4418.388569
4435.212998
4421.659207
4416.289720
4417.559595
4439.722253
4441.102308
4403.855736
4434.278011
4415.184520
4438.090172
4431.423086
4444.280646
4397.706164
4463.980483
4359.571473
4477.856454
4356.887428
4478.623062
4363.215057
4534.803656
4383.380199
4436.901875
4415.955442
4487.571038
4431.267931
4413.594072
4455.040191
4435.932625
4403.095310
4453.060054
4415.462676
4423.596005
4426.786173
4441.029938
4440.535654
4415.387844
4424.793961
4437.729702
4440.156205
4418.510843
4441.841757
4402.751489
4437.483059
4431.321868
4446.845422
4420.466015
4475.875096
4405.174715
4517.357318
4370.020195
4482.381413
4431.427408
4418.690971
4362.643439
4433.849034
4397.919046
4440.555669
4433.813826
4457.315684
4430.504187
4404.973489
4451.469187
4422.005816
4429.264010
4423.449508
4409.534981
4445.692582
4428.836739
4421.319471
4427.910005
4416.637324
4432.354565
4435.159846
4425.294224
4419.120903
4421.297907
4448.688301
4457.050561
4440.784623
4462.174304
4447.489254
4411.825415
4386.402228
4625.631604
4464.932239
4452.586429
4462.272395
4430.340170
4450.211833
4401.856715
4449.214941
4394.419907
4419.483342
4426.600443
4431.330271
4415.128579
4440.202339
4438.306139
4408.771235
4448.020845
4418.830558
4442.849528
4438.573213
4392.633232
4422.989667
4424.283104
4444.865207
4468.235948
4390.064281
4455.505826
4451.233559
4352.816135
4470.132665
4410.870106
4423.356624
4415.360457
4395.588945
4451.875354
4404.299232
4429.863766
4428.511689
4451.298276
4440.802667
4429.758444
4426.284174
4433.363578
4433.807220
4425.489890
4403.588160
4444.957452
4433.708347
4416.130429
4445.358247
4407.220260
4449.359763
4417.787024
4416.157797
4461.797312
4406.329246
4379.757917
4440.789392
4439.704948
4427.606369
4426.067285
4414.998092
4569.273461
4451.031002
4429.675762
4471.207704
4434.709527
4434.884963
4455.895319
4394.616255
4417.814179
4425.748576
4431.235931
4427.723013
4420.991367
4430.288939
4444.145746
4436.871403
4407.870477
4438.724267
4423.422212
4417.147269
4452.252231
4412.587315
4415.451970
4398.117414
4438.239111
4446.630549
4414.472024
4470.676605
4415.818810
4438.019942
4418.879000
4441.790808
4433.314851
4419.746618
4388.625077
4436.567498
4442.338304
4432.356132
4463.904848
4443.907026
4408.583708
4432.760359
4427.977252
4439.230927
4430.893627
4412.860376
4411.573329
4450.442425
4440.894407
4413.221296
4443.811976
4403.994085
4452.448494
4399.267856
4453.980349
4405.838865
4448.434116
4469.133161
4384.255250
4467.232959
4396.713052
4412.336383
4566.174007
4556.344988
4407.146676
4398.131441
4430.200651
4431.360013
4456.884727
4447.602149
4411.578849
4441.507373
4435.641367
4421.285081
4429.061586
4418.376580
4440.034796
4444.533472
4407.350100
4409.150642
4441.477952
4437.726628
4411.080638
4444.180830
4423.140844
4451.097105
4433.843763
4372.040372
4428.047695
4395.105835
4415.554317
4439.822656
4393.086341
4435.619297
4416.663320
4424.659835
4449.087282
4438.394656
4385.722900
4396.077496
4411.404248
4404.017094
4409.880698
4430.591375
4431.809789
4433.680341
4429.985579
4419.936617
4413.602129
4434.986789
4446.860181
4426.535094
4393.058390
4447.544458
4409.497017
4440.516476
4418.821904
4398.034917
4433.243788
4418.116756
4448.730567
4497.936504
4421.331244
4426.619714
4508.423917
4419.228138
4421.919396
4419.966869
4430.207418
4441.841757
4438.720952
4467.025603
4469.839137
4413.931249
4430.823824
4436.404431
4431.472403
4415.096599
4424.235501
4438.144545
4428.779758
4404.030048
4431.725384
4435.085430
4440.402538
4400.196497
4436.644686
4404.950858
4448.809239
4385.210813
4420.585253
4498.406804
4572.422718
4386.419629
4372.107819
4406.471644
4391.213292
4467.772060
4464.154736
4387.970539
4484.382010
4457.023449
4401.763827
4427.725415
4436.753990
4427.804439
4430.889133
4422.333814
4442.606749
4435.565341
4402.964624
4422.663021
4444.711173
4432.052469
4395.218333
4427.033556
4426.842625
4437.519476
4383.839524
4459.211000
4406.630742
4485.260643
4350.208343
4330.544828
4506.394300
4396.884999
4403.135957
4426.590541
4412.031380
4467.663884
4401.808064
4439.357318
4407.937052
4413.139400
4424.260767
4411.776909
4425.974170
4439.600821
4431.565686
4414.493525
4424.521714
4441.577712
4438.508692
4399.576334
4419.796863
4442.807316
4436.960023
4392.183001
4444.158253
4421.471568
4430.039897
4419.891581
4415.836010
4495.192299
4486.678455
4424.322213
4405.720754
4385.228092
4457.974196
4450.445711
4395.355259
4439.270745
4445.051749
4437.880616
4426.527996
4436.564078
4420.877047
4433.960024
4428.406446
4420.292030
4442.573320
4433.625543
4417.249119
4419.130968
4439.019246
4440.496296
4398.085422
4420.141382
4449.776032
4417.870351
4437.237473
4392.578620
4449.915235
4400.200354
4470.789805
4331.407474
4357.291562
4432.962882
4403.882168
4426.273781
4458.302851
4366.183846
4460.803721
4451.220333
4444.313103
4438.030658
4420.776785
4420.716985
4431.190822
4429.727988
4430.745834
4443.699322
4411.971722
4436.357793
4434.368040
4419.381907
4412.830510
4453.304967
4421.382303
4415.969409
4411.554327
4447.954008
4403.371109
4448.098803
4329.884145
4476.369385
4389.239091
4452.703968
4399.579163
4420.717711
4377.060966
4449.187743
4486.131602
4374.986284
4449.543309
4462.724046
4422.020340
4424.470086
4413.968068
4431.115209
4428.626502
4426.744538
4415.559433
4429.950282
4449.180616
4400.481435
4439.223669
4419.325517
4430.920840
4395.469342
4452.020962
4409.872166
4430.562674
4399.084360
4446.725495
4459.601197
4482.232543
4428.054136
4556.119152
4386.753429
4447.403951
4458.028107
4402.836144
4395.031025
4366.448786
4416.174505
4413.982822
4438.369476
4426.643178
4393.617296
4424.784121
4422.882458
4429.815834
4436.949916
4428.859092
4417.074342
4425.479109
4451.959949
4395.438192
4437.114414
4422.948986
4445.712489
4383.428989
4449.905148
4432.502771
4405.843316
4402.212805
4464.771996
4366.325598
4395.802830
4578.625149
4397.622808
4508.741453
4484.029924
4419.490792
4421.841918
4434.819928
4434.261143
4464.558057
4409.798646
4394.314223
4419.291637
4443.400257
4431.191984
4417.612015
4416.503732
4430.909484
4441.018805
4403.255643
4423.037887
4446.078956
4415.000228
4404.800535
4456.152061
4414.711029
4414.295161
4475.497813
4399.684076
4470.385671
4403.368564
4476.433672
4408.240490
4442.204604
4435.600166
4401.784108
4432.807023
4421.590324
4452.531199
4438.887153
4370.789490
4421.539076
4456.702857
4432.055865
4429.990322
4407.229853
4442.889802
4440.357257
4407.290348
4412.585756
4431.409024
4448.281984
4382.405648
4447.878699
4431.376430
4428.103389
4438.233276
4411.624408
4418.906089
4400.172385
4449.605533
4401.538405
4447.829272
4419.914335
4430.423122
4429.178107
4490.593233
4422.027990
4440.948362
4450.766739
4402.422261
4478.242034
4416.450119
4421.841539
4426.007499
4423.944788
4439.379049
4439.252917
4403.621327
4441.540629
4432.693772
4403.322964
4428.123379
4428.797307
4434.274962
4412.959766
4400.127290
4437.728472
4428.990117
4416.837201
4441.819498
4407.023143
4427.496791
4418.318867
4416.657968
4410.256452
4449.632001
4435.558917
4440.835855
4447.950783
4447.106508
4446.432732
4430.050224
4426.598733
4426.088716
4424.910300
4428.047758
4427.102846
4407.196129
4439.564883
4436.174100
4408.961024
4439.432384
4408.698685
4439.695322
4400.350220
4432.633470
4444.735337
4406.659251
4415.355375
4450.623974
4403.695233
4423.156700
4456.936884
4515.884527
4417.010610
4410.570575
4482.318016
4417.683946
4456.005431
4426.182224
4439.930435
4438.921772
4417.371967
4421.717941
4454.155311
4425.155695
4427.292503
4421.857607
4439.405970
4440.084436
4406.027900
4417.394431
4445.780201
4411.071154
4419.582166
4424.004368
4414.472611
4388.919351
4441.229037
4430.682462
4452.485410
4409.796433
4454.439111
4388.691632
4412.894486
4428.995187
4394.247512
4504.261740
4449.599753
4442.993026
4443.555843
4456.720121
4439.307305
4456.697113
4418.491863
4408.296623
4421.847248
4444.232976
4427.378310
4423.156970
4398.971288
4450.358579
4447.094652
4395.768244
4424.034797
4432.563411
4409.738031
4425.775509
4429.494919
4412.302266
4372.658368
4452.846098
4415.309865
4498.997590
4353.034853
4493.811523
4432.465138
4626.128820
4426.786908
4464.380468
4448.150856
4446.740406
4421.520827
4424.623199
4448.048290
4398.914307
4427.223408
4434.511081
4432.605887
4407.575346
4441.774621
4443.855487
4415.280278
4403.797541
4446.874033
4432.554869
4408.742731
4417.335290
4420.821436
4418.793843
4424.914616
4412.924909
4444.321371
4397.272888
4425.377837
4406.841215
4442.099735
4417.051664
4387.396174
4485.054388
4411.742715
4428.658884
4447.373293
4451.297757
4429.851105
4449.987798
4426.870648
4414.923651
4429.063958
4420.458803
4444.471386
4435.400794
4405.295924
4432.674429
4432.331991
4426.137346
4398.901452
4437.079616
4419.784725
4413.531573
4412.935491
4430.832554
4401.720499
4407.280296
4424.861765
4421.480413
4408.226189
4461.836849
4380.025241
4482.352023
4438.416458
4493.208021
4465.065175
4411.922284
4458.061851
4455.468136
4427.527563
4442.495761
4414.233863
4422.125320
4424.752374
4432.078387
4411.517404
4438.057135
4449.015430
4405.689800
4409.026013
4433.837577
4435.408201
4401.404714
4432.290466
4416.515779
4414.262823
4442.575675
4448.703068
4438.344085
4432.936279
4418.193278
4455.687273
4504.924981
4490.677672
4469.017690
4469.360937
4456.563413
4453.210976
4450.237127
4463.865484
4433.716055
4434.655689
4434.400205
4425.627722
4434.949509
4418.047408
4440.010305
4442.242566
4385.861894
4441.277284
4442.325853
4404.835330
4404.778700
4432.801134
4421.861885
4419.032665
4415.958241
4402.944890
4402.002268
4427.229771
4428.473392
4437.580741
4453.859960
4434.490252
4448.335569
4463.565313
4425.873815
4464.269524
4458.944196
4463.781834
4433.534578
4419.227232
4430.477651
4402.996348
4423.383320
4431.568208
4431.840652
4423.449117
4413.940855
4446.793285
4443.370534
4388.811503
4432.196547
4433.189046
4422.625013
4402.610931
4419.605978
4439.673806
4437.317324
4437.861626
4423.901031
4439.572992
4422.155070
4437.765935
4463.748712
4442.583147
4457.660061
4483.211205
4403.200120
4465.737007
4410.945630
4401.161233
4461.467529
4404.044407
4443.271166
4435.072154
4427.507483
4426.492685
4429.462200
4432.428917
4430.094657
4396.774636
4440.860252
4443.467381
4400.580804
4420.750973
4422.714004
4427.360237
4393.921182
4383.453592
4414.184255
4419.800177
4422.723957
4419.641616
4455.387325
4438.464808
4454.452188
4461.382591
4431.936929
4431.379941
4478.499392
4467.979378
4471.399937
4429.500952
4438.691102
4413.331394
4437.372960
4420.353927
4441.027786
4427.780736
4426.906916
4407.439310
4440.657251
4439.811905
4390.904882
4436.569272
4445.403998
4410.336965
4414.986599
4424.055354
4423.158803
4438.116974
4420.886567
4429.920643
4419.272620
4449.831530
4413.558969
4447.812406
4429.873482
4449.634712
4462.814043
4443.843154
4435.134918
4406.144548
4387.669208
4410.328539
4410.835262
4429.096882
4432.233587
4438.117101
4409.238907
4442.245685
4439.512635
4410.218216
4398.045864
4442.653260
4440.232648
4391.094010
4442.173798
4409.954417
4415.301917
4414.846164
4399.525755
4418.552996
4422.007481
4415.149782
4434.076820
4456.623056
4434.918362
4418.817516
4465.990902
4433.293459
4456.629354
4445.259615
4427.253226
4479.756193
4506.574815
4416.718501
4436.398337
4433.288656
4420.109662
4444.207145
4423.196365
4413.692232
4437.923325
4443.246771
4409.576534
4413.506773
4424.484822
4441.962676
4416.894561
4427.562718
4423.201661
4435.101448
4424.363856
4439.165837
4431.660908
4437.333975
4438.494323
4459.570503
4453.816644
4451.771543
4424.358026
4445.356394
4464.987147
4405.380241
4372.119068
4478.325216
4416.446659
4426.605146
4427.591745
4433.603516
4443.615282
4396.467286
4446.826521
4427.529185
4406.605662
4420.273399
4433.262674
4431.301146
4403.123199
4433.252752
4426.396914
4407.966763
4427.733226
4415.281218
4432.619315
4411.124004
4429.543732
4426.466791
4432.913156
4433.838217
4422.344261
4430.489667
4444.024451
4423.637623
4479.950773
4452.338143
4442.174442
4412.247737
4424.984816
4419.816526
4443.162800
4416.963305
4429.540551
4433.238499
4399.885634
4437.821843
4444.323585
4416.529219
4414.333985
4456.158608
4400.148525
4428.405643
4430.279875
4430.034510
4428.468959
4408.818581
4442.275856
4436.819684
4428.309480
4433.586750
4445.726643
4464.892481
4407.339366
4453.945748
4466.306681
4424.772025
4444.711985
4450.988181
4459.812434
4428.922064
4423.851341
4418.119940
4421.945205
4450.672760
4411.652847
4437.378401
4442.231448
4397.358409
4446.339701
4414.562067
4422.924402
4432.362051
4428.660045
4427.806827
4438.163873
4417.255049
4420.957133
4440.722603
4402.644092
4449.890225
4455.419278
4450.545223
4445.312967
4432.056701
4421.801002
4437.739817
4451.367934
4451.469933
4462.147058
4447.627432
4424.446647
4426.951246
4437.168735
4430.074204
4412.420414
4413.325359
4439.816864
4404.561302
4452.545172
4445.654572
4409.682991
4447.226612
4414.097901
4422.033598
4414.328802
4428.854709
4415.893766
4432.619684
4425.979430
4410.680930
4441.918036
4388.603649
4437.670242
4411.612872
4455.147047
4464.421687
4433.223327
4441.678554
4436.042079
4459.426323
4453.749156
4426.485176
4432.513728
4410.574366
4427.366514
4438.639932
4434.588255
4406.583466
4425.157106
4429.858377
4399.116216
4430.796008
4394.456827
4410.804796
4420.354490
4442.550329
4411.323409
4434.980645
4423.211041
4438.395825
4424.090853
4422.382561
4424.629847
4436.763524
4447.630958
4433.699996
4421.416710
4476.217339
4457.980862
4459.178008
4438.004860
4457.899915
4425.928500
4430.060153
4434.690065
4439.554704
4426.830619
4436.798490
4434.784320
4435.863217
4408.176613
4446.749608
4466.253793
4401.608718
4450.353932
4458.266722
4398.850943
4442.659120
4428.661219
4397.958272
4452.001310
4424.867560
4422.195185
4442.469823
4418.494552
4438.188545
4438.796171
4436.953196
4456.274254
4428.272389
4478.603693
4460.518013
4467.584625
4427.414893
4427.673937
4414.634293
4422.773011
4391.098680
4449.288906
4436.933622
4416.166611
4427.849436
4419.404050
4384.049222
4441.421703
4441.119415
4408.144806
4429.624641
4387.550015
4433.240840
4427.625722
4445.051569
4443.368286
4456.185076
4381.464265
4455.860527
4415.568049
4447.271024
4432.620724
4454.662089
4440.599404
4479.448212
4410.489971
4471.024593
4425.885723
4424.439261
4436.818255
4431.821575
4428.290752
4423.683442
4421.567196
4456.276720
4409.754679
4448.967388
4442.008389
4442.535490
4384.784939
4431.104886
4425.657134
4458.195923
4411.099362
4415.602961
4435.091878
4391.240483
4437.947558
4446.945207
4451.410509
4445.511997
4458.932440
4435.266572
4466.856516
4452.374049
4447.156409
4457.982597
4464.835871
4422.829564
4420.693441
4431.671579
4409.728832
4418.991834
4420.946402
4432.036844
4425.575293
4442.063864
4411.298681
4429.058885
4389.244858
4442.277365
4441.710357
4417.540408
4431.696485
4418.556012
4439.791027
4460.995182
4399.445505
4449.866822
4414.837430
4439.520127
4402.228386
4452.714375
4420.124733
4474.040281
4458.533627
4454.500280
4451.641903
4459.755249
4427.841677
4436.943168
4421.973574
4428.059025
4450.126033
4439.596985
4444.655667
4418.908065
4420.037124
4435.331423
4458.813256
4452.921696
4417.443470
4405.591597
4407.835071
4480.710162
4438.205049
4437.293453
4413.351354
4438.751032
4436.907153
4442.961261
4464.837605
4447.304779
4441.337661
4458.869883
4426.209672
4466.717668
4468.253966
4444.347964
4459.258738
4428.519621
4430.647381
4418.764013
4422.552254
4400.213091
4446.629403
4426.543346
4419.225240
4426.209619
4441.227173
4387.303703
4398.619604
4467.925677
4438.472036
4396.903255
4428.359156
4432.707669
4443.874692
4454.248865
4419.205709
4422.853379
4444.161880
4404.689730
4417.378654
4464.991573
4432.792690
4458.059914
4452.352891
4452.699155
4457.750906
4456.514668
4432.871911
4425.636829
4440.113929
4441.076905
4426.181085
4433.351062
4429.972170
4412.562871
4445.405797
4429.931064
4446.117235
4452.423531
4403.920728
4409.291177
4446.708459
4440.645302
4416.327345
4424.639837
4416.247757
4420.010839
4440.854934
4410.729285
4441.159472
4457.298639
4456.580418
4403.224345
4443.891294
4448.118687
4461.035350
4449.173189
4451.989433
4429.446407
4423.921697
4437.847315
4404.174422
4445.704770
4423.063452
4416.559081
4446.975817
4421.128507
4415.122225
4404.604319
4424.220323
4436.859586
4445.218465
4397.849820
4440.109882
4458.195398
4444.122961
4423.565578
4466.776472
4442.077157
4452.044041
4418.109150
4457.783418
4416.932999
4474.262095
4453.383261
4435.759572
4456.234890
4454.538144
4449.679315
4438.408171
4432.989238
4437.119031
4437.643207
4446.024503
4424.133579
4440.427844
4411.550168
4423.908648
4449.600208
4428.782506
4434.593753
4432.862811
4440.077076
4459.629990
4430.407575
4431.881610
4445.524045
4424.884253
4401.969531
4467.817413
4458.559793
4404.993442
4448.000014
4461.142463
4451.245494
4424.289541
4427.096557
4483.297403
4465.036834
4449.303842
4430.898032
4430.218885
4414.759912
4432.426707
4413.066160
4429.906112
4433.562932
4433.322371
4434.690310
4421.844421
4413.249457
4443.413830
4415.746381
4425.343567
4439.355570
4411.228567
4437.173383
4423.134444
4446.569887
4437.714381
4438.144309
4434.242560
4453.647911
4452.004125
4415.111560
4449.234145
4448.557257
4450.052066
4445.955186
4448.809333
4446.312379
4428.929872
4434.256260
4444.255331
4416.606409
4453.256533
4412.832208
4441.285519
4392.530967
4433.226614
4446.418990
4443.402946
4435.538106
4443.425054
4404.234653
4416.890152
4441.932202
4446.818176
4428.551272
4430.229222
4431.435555
4443.258851
4453.852271
4445.744247
4431.200088
4466.390105
4441.751402
4413.930498
4439.889196
4443.993415
4465.091360
4443.992875
4449.919141
4425.829330
4432.533561
4427.950674
4412.458348
4453.113271
4430.291397
4458.506491
4439.390447
4405.190289
4419.680267
4415.828578
4456.938174
4440.859294
4437.754206
4422.204798
4432.465221
4440.330574
4423.053763
4448.433714
4438.330179
4431.123441
4421.994871
4436.252680
4431.885518
4455.452605
4454.271238
4450.388232
4429.216786
4460.155469
4444.540984
4433.078013
4428.763957
4435.232072
4444.863396
4422.554886
4423.211428
4418.030697
4447.692852
4413.689216
4458.496284
4446.810338
4435.078497
4421.018697
4453.162494
4408.995464
4452.137033
4449.903934
4427.164084