# vtk DataFile Version 2.0
mfree iwf
ASCII

DATASET UNSTRUCTURED_GRID
POINTS 6231 float
0.000000 0.000300 0.000000
0.000000 0.000310 0.000000
0.000000 0.000320 0.000000
0.000000 0.000330 0.000000
0.000000 0.000340 0.000000
0.000000 0.000350 0.000000
0.000000 0.000360 0.000000
0.000001 0.000370 0.000000
0.000001 0.000380 0.000000
0.000001 0.000390 0.000000
0.000001 0.000400 0.000000
0.000001 0.000410 0.000000
0.000001 0.000420 0.000000
0.000001 0.000430 0.000000
0.000001 0.000440 0.000000
0.000001 0.000450 0.000000
0.000002 0.000460 0.000000
0.000002 0.000470 0.000000
0.000002 0.000480 0.000000
0.000001 0.000492 0.000000
0.000006 0.000501 0.000000
0.001052 0.001106 0.000000
0.001126 0.001140 0.000000
0.001069 0.001113 0.000000
0.001138 0.001144 0.000000
0.001161 0.001148 0.000000
0.001210 0.001152 0.000000
0.001218 0.001150 0.000000
0.001230 0.001144 0.000000
0.001242 0.001141 0.000000
0.001272 0.001141 0.000000
0.000010 0.000300 0.000000
0.000010 0.000310 0.000000
0.000010 0.000320 0.000000
0.000010 0.000330 0.000000
0.000010 0.000340 0.000000
0.000010 0.000350 0.000000
0.000010 0.000360 0.000000
0.000011 0.000370 0.000000
0.000011 0.000380 0.000000
0.000011 0.000390 0.000000
0.000011 0.000400 0.000000
0.000011 0.000410 0.000000
0.000011 0.000420 0.000000
0.000011 0.000430 0.000000
0.000011 0.000440 0.000000
0.000011 0.000450 0.000000
0.000012 0.000460 0.000000
0.000011 0.000472 0.000000
0.000013 0.000478 0.000000
0.000009 0.000492 0.000000
0.000013 0.000498 0.000000
0.001179 0.001145 0.000000
0.001195 0.001145 0.000000
0.001203 0.001146 0.000000
0.001209 0.001143 0.000000
0.001224 0.001137 0.000000
0.001236 0.001135 0.000000
0.001250 0.001130 0.000000
0.001261 0.001131 0.000000
0.001266 0.001128 0.000000
0.001269 0.001137 0.000000
0.000020 0.000300 0.000000
0.000020 0.000310 0.000000
0.000020 0.000320 0.000000
0.000020 0.000330 0.000000
0.000021 0.000340 0.000000
0.000020 0.000350 0.000000
0.000021 0.000360 0.000000
0.000021 0.000370 0.000000
0.000020 0.000380 0.000000
0.000021 0.000390 0.000000
0.000020 0.000400 0.000000
0.000022 0.000410 0.000000
0.000020 0.000420 0.000000
0.000022 0.000430 0.000000
0.000020 0.000440 0.000000
0.000023 0.000451 0.000000
0.000020 0.000460 0.000000
0.000022 0.000470 0.000000
0.000021 0.000482 0.000000
0.000024 0.000494 0.000000
0.000020 0.000497 0.000000
0.001146 0.001135 0.000000
0.001175 0.001140 0.000000
0.001186 0.001141 0.000000
0.001190 0.001139 0.000000
0.001200 0.001132 0.000000
0.001215 0.001135 0.000000
0.001241 0.001127 0.000000
0.001256 0.001126 0.000000
0.001263 0.001118 0.000000
0.001270 0.001114 0.000000
0.000030 0.000300 0.000000
0.000030 0.000310 0.000000
0.000030 0.000320 0.000000
0.000031 0.000330 0.000000
0.000030 0.000340 0.000000
0.000031 0.000350 0.000000
0.000030 0.000360 0.000000
0.000031 0.000370 0.000000
0.000031 0.000380 0.000000
0.000031 0.000390 0.000000
0.000031 0.000400 0.000000
0.000031 0.000410 0.000000
0.000031 0.000420 0.000000
0.000031 0.000430 0.000000
0.000031 0.000440 0.000000
0.000030 0.000450 0.000000
0.000031 0.000459 0.000000
0.000036 0.000473 0.000000
0.000029 0.000478 0.000000
0.000032 0.000488 0.000000
0.000032 0.000497 0.000000
0.000063 0.000500 0.000000
0.001167 0.001135 0.000000
0.001184 0.001127 0.000000
0.001210 0.001124 0.000000
0.001218 0.001118 0.000000
0.001226 0.001129 0.000000
0.001228 0.001122 0.000000
0.001240 0.001119 0.000000
0.001246 0.001117 0.000000
0.001269 0.001107 0.000000
0.000040 0.000300 0.000000
0.000040 0.000310 0.000000
0.000040 0.000320 0.000000
0.000040 0.000330 0.000000
0.000040 0.000340 0.000000
0.000040 0.000350 0.000000
0.000040 0.000360 0.000000
0.000041 0.000370 0.000000
0.000041 0.000380 0.000000
0.000040 0.000390 0.000000
0.000041 0.000399 0.000000
0.000041 0.000410 0.000000
0.000042 0.000420 0.000000
0.000040 0.000430 0.000000
0.000042 0.000439 0.000000
0.000043 0.000450 0.000000
0.000042 0.000460 0.000000
0.000037 0.000469 0.000000
0.000045 0.000477 0.000000
0.000043 0.000496 0.000000
0.000040 0.000498 0.000000
0.000947 0.000967 0.000000
0.001174 0.001126 0.000000
0.001192 0.001124 0.000000
0.001198 0.001120 0.000000
0.001209 0.001127 0.000000
0.001230 0.001113 0.000000
0.001250 0.001107 0.000000
0.001248 0.001097 0.000000
0.001259 0.001109 0.000000
0.001266 0.001098 0.000000
0.000050 0.000300 0.000000
0.000050 0.000310 0.000000
0.000050 0.000320 0.000000
0.000050 0.000330 0.000000
0.000051 0.000339 0.000000
0.000050 0.000350 0.000000
0.000051 0.000360 0.000000
0.000050 0.000371 0.000000
0.000051 0.000380 0.000000
0.000050 0.000390 0.000000
0.000052 0.000400 0.000000
0.000049 0.000410 0.000000
0.000053 0.000419 0.000000
0.000051 0.000430 0.000000
0.000053 0.000440 0.000000
0.000047 0.000451 0.000000
0.000055 0.000458 0.000000
0.000052 0.000469 0.000000
0.000055 0.000483 0.000000
0.000048 0.000488 0.000000
0.000050 0.000498 0.000000
0.001165 0.001142 0.000000
0.001120 0.001131 0.000000
0.001186 0.001117 0.000000
0.001197 0.001104 0.000000
0.001216 0.001109 0.000000
0.001231 0.001106 0.000000
0.001222 0.001101 0.000000
0.001241 0.001105 0.000000
0.001256 0.001097 0.000000
0.001261 0.001087 0.000000
0.000060 0.000300 0.000000
0.000060 0.000310 0.000000
0.000060 0.000321 0.000000
0.000060 0.000331 0.000000
0.000061 0.000340 0.000000
0.000059 0.000349 0.000000
0.000061 0.000359 0.000000
0.000060 0.000369 0.000000
0.000062 0.000380 0.000000
0.000059 0.000390 0.000000
0.000063 0.000399 0.000000
0.000060 0.000409 0.000000
0.000064 0.000419 0.000000
0.000058 0.000430 0.000000
0.000065 0.000440 0.000000
0.000060 0.000449 0.000000
0.000065 0.000460 0.000000
0.000055 0.000471 0.000000
0.000064 0.000475 0.000000
0.000068 0.000485 0.000000
0.000058 0.000496 0.000000
0.001154 0.001141 0.000000
0.001164 0.001126 0.000000
0.001180 0.001108 0.000000
0.001199 0.001111 0.000000
0.001211 0.001099 0.000000
0.001212 0.001090 0.000000
0.001241 0.001088 0.000000
0.001233 0.001096 0.000000
0.001251 0.001087 0.000000
0.001258 0.001079 0.000000
0.000070 0.000300 0.000000
0.000070 0.000310 0.000000
0.000070 0.000319 0.000000
0.000071 0.000329 0.000000
0.000071 0.000340 0.000000
0.000070 0.000351 0.000000
0.000072 0.000359 0.000000
0.000068 0.000372 0.000000
0.000081 0.000376 0.000000
0.000069 0.000390 0.000000
0.000073 0.000400 0.000000
0.000068 0.000411 0.000000
0.000074 0.000421 0.000000
0.000068 0.000429 0.000000
0.000075 0.000438 0.000000
0.000066 0.000452 0.000000
0.000078 0.000458 0.000000
0.000073 0.000470 0.000000
0.000076 0.000486 0.000000
0.000068 0.000495 0.000000
0.000076 0.000496 0.000000
0.000938 0.000946 0.000000
0.001154 0.001129 0.000000
0.001175 0.001118 0.000000
0.001192 0.001088 0.000000
0.001209 0.001109 0.000000
0.001223 0.001090 0.000000
0.001233 0.001088 0.000000
0.001227 0.001079 0.000000
0.001247 0.001077 0.000000
0.001255 0.001069 0.000000
0.000080 0.000300 0.000000
0.000080 0.000310 0.000000
0.000081 0.000321 0.000000
0.000079 0.000331 0.000000
0.000082 0.000340 0.000000
0.000080 0.000350 0.000000
0.000082 0.000361 0.000000
0.000074 0.000370 0.000000
0.000075 0.000384 0.000000
0.000080 0.000391 0.000000
0.000089 0.000397 0.000000
0.000079 0.000410 0.000000
0.000086 0.000417 0.000000
0.000078 0.000431 0.000000
0.000086 0.000445 0.000000
0.000076 0.000448 0.000000
0.000085 0.000464 0.000000
0.000074 0.000470 0.000000
0.000088 0.000472 0.000000
0.000085 0.000482 0.000000
0.000084 0.000495 0.000000
0.001145 0.001140 0.000000
0.001116 0.001136 0.000000
0.001177 0.001097 0.000000
0.001188 0.001104 0.000000
0.001201 0.001094 0.000000
0.001206 0.001082 0.000000
0.001217 0.001081 0.000000
0.001236 0.001075 0.000000
0.001243 0.001069 0.000000
0.001250 0.001060 0.000000
0.000090 0.000300 0.000000
0.000090 0.000310 0.000000
0.000090 0.000319 0.000000
0.000090 0.000329 0.000000
0.000091 0.000340 0.000000
0.000089 0.000350 0.000000
0.000092 0.000361 0.000000
0.000089 0.000369 0.000000
0.000092 0.000379 0.000000
0.000089 0.000387 0.000000
0.000084 0.000404 0.000000
0.000093 0.000409 0.000000
0.000086 0.000425 0.000000
0.000096 0.000426 0.000000
0.000089 0.000435 0.000000
0.000097 0.000455 0.000000
0.000087 0.000453 0.000000
0.000098 0.000472 0.000000
0.000106 0.000480 0.000000
0.000089 0.000495 0.000000
0.000094 0.000495 0.000000
0.000956 0.000983 0.000000
0.001148 0.001123 0.000000
0.001137 0.001130 0.000000
0.001167 0.001116 0.000000
0.001184 0.001085 0.000000
0.001211 0.001072 0.000000
0.001224 0.001071 0.000000
0.001230 0.001065 0.000000
0.001239 0.001060 0.000000
0.001246 0.001051 0.000000
0.000100 0.000300 0.000000
0.000100 0.000310 0.000000
0.000100 0.000321 0.000000
0.000100 0.000331 0.000000
0.000101 0.000340 0.000000
0.000099 0.000350 0.000000
0.000101 0.000359 0.000000
0.000100 0.000370 0.000000
0.000101 0.000381 0.000000
0.000100 0.000391 0.000000
0.000100 0.000400 0.000000
0.000103 0.000407 0.000000
0.000101 0.000418 0.000000
0.000100 0.000436 0.000000
0.000108 0.000442 0.000000
0.000096 0.000445 0.000000
0.000107 0.000460 0.000000
0.000096 0.000465 0.000000
0.000094 0.000481 0.000000
0.000106 0.000491 0.000000
0.000101 0.000494 0.000000
0.001074 0.001116 0.000000
0.001084 0.001121 0.000000
0.001110 0.001133 0.000000
0.001190 0.001094 0.000000
0.001199 0.001080 0.000000
0.001200 0.001069 0.000000
0.001220 0.001062 0.000000
0.001212 0.001059 0.000000
0.001234 0.001054 0.000000
0.001241 0.001043 0.000000
0.000110 0.000300 0.000000
0.000110 0.000310 0.000000
0.000110 0.000319 0.000000
0.000110 0.000329 0.000000
0.000110 0.000340 0.000000
0.000112 0.000351 0.000000
0.000109 0.000360 0.000000
0.000113 0.000370 0.000000
0.000110 0.000378 0.000000
0.000110 0.000389 0.000000
0.000112 0.000399 0.000000
0.000110 0.000414 0.000000
0.000116 0.000423 0.000000
0.000105 0.000427 0.000000
0.000114 0.000432 0.000000
0.000107 0.000451 0.000000
0.000116 0.000462 0.000000
0.000110 0.000470 0.000000
0.000116 0.000480 0.000000
0.000111 0.000493 0.000000
0.000119 0.000492 0.000000
0.001020 0.001073 0.000000
0.000966 0.001002 0.000000
0.001142 0.001118 0.000000
0.001162 0.001106 0.000000
0.001151 0.001102 0.000000
[...]
POINT_DATA 6231
SCALARS density float 1
LOOKUP_TABLE default
4414.549679
4427.551361
4423.249152
4422.847113
4423.354387
4422.561167
4426.042865
4427.320353
4428.069347
4429.648481
4429.258766
4433.470477
4428.568278
4429.890135
4431.617744
4440.081246
4423.437342
4431.930891
4413.588394
4424.203754
4411.253791
4422.707688
4424.038572
4432.397398
4437.267948
4420.823082
4397.898296
4428.253213
4447.903369
4449.941906
4416.811765
4417.409953
4424.655070
4425.442805
4428.473769
4430.136961
4429.015455
4425.328685
4427.906993
4428.681661
4430.074696
4423.191915
4426.643896
4422.791436
4438.584113
4417.273138
4427.771040
4410.956031
4441.716830
4463.113475
4459.538930
4416.218103
4407.638606
4415.737422
4436.490447
4510.580051
4396.519512
4406.441499
4423.543526
4399.662254
4450.301081
4437.981205
4419.620736
4430.746627
4426.903299
4424.012737
4423.277681
4426.958976
4427.321136
4432.762732
4419.169174
4432.486152
4427.338026
4441.914063
4423.198040
4437.389506
4414.980857
4474.483683
4400.994103
4455.029396
4351.658595
4450.927074
4421.520365
4426.777157
4441.170808
4420.097347
4504.491813
4330.757891
4361.780549
4414.057616
4427.360541
4426.382660
4403.623479
4428.227482
4429.947763
4424.837528
4433.942065
4433.885624
4432.508496
4424.421587
4435.779118
4425.689661
4439.630232
4412.730943
4429.332873
4415.676655
4445.731811
4407.012384
4429.931996
4388.987013
4451.855459
4373.140684
4550.411447
4373.570448
4435.725415
4465.179296
4425.005356
4462.260041
4351.721095
4484.300204
4448.953010
4419.672694
4474.681532
4429.599232
4431.616429
4427.995462
4431.943305
4436.479474
4421.890196
4437.298012
4430.062552
4432.399010
4423.481162
4429.908848
4418.742518
4450.845714
4411.832246
4444.798103
4413.952140
4449.589679
4387.988740
4512.783611
4310.549641
4418.769548
4384.942226
4430.861456
4406.969449
4440.316742
4452.681354
4497.583354
4432.216697
4402.027457
4480.242423
4444.503146
4415.019059
4429.754901
4432.834839
4429.744970
4433.186495
4432.406304
4436.513664
4422.034579
4439.470165
4422.406204
4439.869427
4416.479818
4439.269834
4399.595780
4449.274834
4373.568866
4479.226648
4362.867181
4471.273855
4363.404100
4538.150588
4381.416874
4436.855363
4428.663648
4449.796122
4450.638384
4457.550936
4441.380957
4396.750122
4413.312014
4421.583699
4420.477536
4428.440389
4439.496508
4420.445644
4438.169303
4437.126867
4439.731632
4412.191930
4443.925249
4397.811394
4445.321913
4425.328088
4441.079540
4423.445519
4445.946108
4408.951573
4467.676357
4400.375327
4514.413924
4377.841984
4468.420359
4433.498471
4413.324336
4391.878741
4401.047666
4402.506420
4456.137348
4425.354506
4416.426103
4412.517403
4416.585490
4432.738817
4432.026357
4429.768158
4426.477758
4438.180095
4396.220491
4448.185914
4428.706960
4426.124815
4403.661660
4452.291023
4386.908700
4435.891522
4409.579750
4433.455087
4440.285402
4458.361922
4432.576965
4452.548769
4455.125346
4414.613039
4387.721973
4432.635561
4465.790835
4446.375696
4409.788832
4399.662918
4427.638390
4450.800333
4434.650341
4441.309094
4413.017562
4429.744681
4427.532491
4421.597900
4426.068663
4431.044905
4438.590109
4414.598665
4442.586170
4429.389129
4442.653058
4416.637188
4434.309759
4421.944329
4438.986622
4451.638689
4400.197495
4459.530018
4448.526130
4368.605331
4465.499993
4410.166087
4428.732448
4414.514501
4434.008171
4429.378300
4391.311658
4451.851925
4441.697338
4402.290283
4438.134278
4435.804486
4424.038038
4435.175724
4436.402424
4406.902848
4435.228269
4418.340258
4438.431294
4448.961675
4433.058603
4420.584323
4448.200362
4405.995879
4426.617564
4456.015870
4413.187791
4392.760837
4428.468761
4411.201977
4437.052778
4423.729818
4412.687091
4427.825673
4415.384587
4437.305820
4474.121755
4403.301212
4384.397503
4435.423292
4440.157149
4433.132868
4413.258681
4429.364074
4427.517729
4422.853784
4444.311677
4431.426108
4422.708149
4438.206701
4400.971108
4446.287186
4423.012946
4437.886358
4442.864725
4421.815054
4401.881020
4453.692955
4456.543215
4430.497980
4462.171408
4427.655714
4428.705400
4415.678046
4425.478704
4435.254573
4427.278096
4453.609224
4458.764689
4396.553413
4410.145021
4471.236611
4449.295226
4424.875603
4430.059608
4435.544311
4435.250618
4422.544619
4426.648267
4423.876464
4434.145349
4441.160498
4430.116568
4423.023335
4410.800135
4439.377548
4406.960452
4445.229245
4419.908739
4416.139991
4476.118301
4403.786163
4457.991279
4405.661687
4410.459393
4437.955907
4437.247731
4407.116740
4388.245554
4393.583474
4446.951503
4447.813281
4410.411859
4424.278205
4452.563400
4433.986328
4431.138759
4422.921833
4433.697646
4429.326173
4434.291168
4411.191142
4433.858741
4396.481646
4451.565024
4437.776673
4416.519685
4444.293822
4457.708506
4410.374962
4403.349764
4419.216956
4380.167129
4435.699842
4435.982096
4392.607806
4440.762597
4415.417126
4428.288084
4453.526645
4443.041515
4416.514945
4351.935945
4460.106226
4388.309502
4419.177234
4439.506400
4428.629862
4429.021859
4443.438204
4412.955811
4440.252119
4428.621436
4425.813011
4451.059533
4409.561706
4409.182663
4414.345049
4443.168059
4414.574178
4398.875402
4469.133055
4407.582307
4467.816304
4486.596636
4417.464840
4440.294006
4435.765646
4418.869180
4424.087746
4424.798343
4437.488127
4456.102999
4460.766175
4463.968725
4491.662499
4454.439418
4432.940846
4432.610395
4436.806487
4412.835460
4441.170109
4425.068212
4424.082326
4425.091095
4411.802877
4415.647970
4452.993498
4417.073522
4454.413546
4419.393797
4433.974616
4357.728291
4414.329189
4486.011986
4572.202979
4390.427579
4379.327341
4426.363494
4419.673840
4448.284734
4454.837834
4410.970784
4441.810637
4426.655477
4405.174157
4406.039999
4446.977485
4426.275632
4435.680943
4433.148570
4415.827146
4446.141645
4396.015521
4441.090248
4421.005790
4432.378876
4407.685508
4452.895068
4427.675850
4430.343190
4421.011920
4448.919968
4440.961291
4523.633925
4343.154388
4326.528662
4460.938341
4392.091417
4415.734187
4430.798616
4436.504182
4478.683190
4446.283457
4441.808202
4435.265498
4398.376374
4422.749052
4412.840740
4431.612711
4430.538591
4428.339841
4427.528560
4428.855673
4433.324682
4440.049289
4384.800145
4423.450244
4451.657329
4447.116957
4428.051506
4452.799299
4397.318884
4434.711304
4422.685223
4407.872427
4486.373891
4472.196855
4421.923927
4406.077603
4428.295392
4451.289916
4405.076859
4370.047167
4461.182054
4466.940269
4422.440391
4404.984958
4432.358572
4429.758490
4434.867534
4420.384779
4437.668786
4438.716576
4430.946667
4421.619640
4399.228645
4449.154698
4437.674720
4414.929556
4434.378230
4424.756313
4405.897966
4443.325417
4422.828398
4434.689068
4397.736813
4470.411457
4377.796328
4393.727478
4418.856763
4421.864987
4439.232958
4440.948066
4398.556962
4469.099083
4441.390766
4398.527471
4467.022336
4427.118337
4439.021819
4429.251448
4427.528976
4434.861341
4419.319429
4427.725466
4438.654951
4423.092054
4406.733937
4425.215113
4437.458299
4434.303888
4441.868642
4445.165615
4417.595394
4413.333430
4448.776625
4389.683742
4433.626058
4423.924347
4436.391178
4387.154157
4423.102963
4434.338770
4437.035268
4443.222840
4417.119843
4475.456001
4477.754381
4412.750561
4422.235848
4421.054817
4427.345633
4429.221986
4423.966530
4423.807637
4440.519788
4406.313894
4446.053605
4422.617068
4428.519550
4418.971250
4419.856770
4417.577907
4436.471115
4417.080040
4425.298587
4448.139150
4382.160178
4470.315874
4426.077397
4553.244791
4377.314801
4465.575675
4420.156078
4435.987494
4447.301775
4381.165213
4464.367840
4392.124910
4411.811695
4415.229443
4420.832870
4429.684578
4434.289000
4427.572902
4431.846399
4417.636685
4453.674546
4406.965593
4416.658323
4379.710847
4446.690324
4450.984963
4434.741056
4426.113799
4438.500515
4432.425989
4433.876203
4467.215108
4474.391758
4388.291733
4385.325138
4434.917294
4417.194694
4431.585158
4460.866258
4439.166604
4405.943336
4430.936844
4451.778505
4457.841768
4424.167152
4411.292868
4432.636231
4428.752786
4423.920328
4440.418816
4412.248510
4450.525797
4405.233837
4428.534230
4439.527081
4422.612125
4421.468778
4421.146471
4456.492803
4424.724564
4391.625450
4468.720713
4421.954085
4403.584342
4395.434786
4461.741481
4414.724191
4449.897230
4420.470633
4431.093529
4432.686589
4388.587708
4374.238119
4451.243104
4356.510037
4426.260097
4443.137762
4428.405458
4434.130735
4429.528891
4434.492127
4427.888015
4402.599256
4443.924000
4423.819126
4404.568322
4442.590819
4401.355642
4430.464112
4453.708651
4420.028767
4395.142356
4451.640087
4415.361909
4415.148764
4452.123721
4450.320911
4429.099323
4423.993079
4418.539251
4457.262118
4409.598792
4431.954957
4475.571357
4342.387167
4487.015796
4388.753104
4419.536531
4427.884674
4428.252424
4431.090842
4410.686405
4442.559144
4440.071621
4428.212087
4415.471935
4407.060369
4438.880499
4418.409109
4439.328152
4396.814498
4437.136436
4430.159352
4420.950750
4415.942128
4446.320249
4400.296016
4433.604875
4423.853535
4411.541791
4438.595984
4421.144610
4442.055165
4465.246650
4425.550870
4401.177514
4447.088754
4437.841619
4444.053605
4427.443357
4423.615291
4437.055043
4440.773225
4406.989507
4422.198158
4412.748277
4444.127217
4439.810790
4421.268996
4435.832213
4433.582738
4440.438067
4451.858750
4386.640016
4453.777553
4401.876992
4456.133776
4435.929935
4472.788957
4412.361572
4422.267939
4458.546918
4419.116485
4433.880956
4452.269723
4427.773435
4463.160874
4422.945950
4420.403494
4433.766909
4434.961142
4441.247387
4410.283106
4437.345840
4435.200979
4436.715191
4438.768494
4416.089282
4410.685068
4444.950971
4439.859594
4442.737007
4431.504415
4427.523809
4437.867333
4431.224384
4406.391312
4450.138483
4362.323273
4426.870423
4430.800938
4415.182638
4457.357158
4434.643183
4431.773436
4393.869326
4448.304104
4423.633763
4447.723740
4410.426140
4421.067692
4423.965606
4438.743235
4418.697898
4435.077610
4408.850794
4431.346102
4410.397626
4451.942188
4433.604402
4438.611179
4402.841635
4462.298035
4397.153251
4408.015241
4399.624998
4448.408691
4430.720221
4458.796118
4421.390865
4436.735502
4428.372980
4432.804685
4422.734262
4396.618390
4422.863699
4444.414300
4417.573381
4409.202787
4470.741514
4408.489178
4442.973352
4424.782358
4432.562830
4432.244496
4437.672534
4421.143437
4448.823204
4421.927115
4426.586612
4398.013054
4450.254910
4397.023309
4416.302036
4428.506608
4445.853727
4423.912744
4449.962021
4407.696467
4455.910722
4420.751590
4435.294589
4412.399839
4424.410203
4429.037944
4429.179976
4418.055376
4418.964495
4419.225804
4445.882760
4415.859078
4405.171526
4430.829160
4433.645563
4429.698506
4414.865030
4428.382633
4431.412009
4421.132608
4428.140753
4436.489289
4422.781919
4423.710610
4434.182722
4442.320023
4429.678314
4436.951847
4394.537424
4445.314969
4403.852519
4451.906847
4428.300528
4431.764096
4408.566133
4431.508439
4416.260796
4431.607697
4472.127703
4399.178066
4411.832690
4445.138956
4409.285944
4434.606151
4407.409819
4428.012636
4423.258740
4440.907550
4440.489875
4432.524736
4425.347211
4434.442487
4422.938676
4439.722629
4423.448097
4411.556465
4438.343221
4431.691420
4408.304867
4426.311448
4425.320932
4422.792347
4376.151545
4372.831534
4460.318600
4429.068294
4406.388528
4422.859763
4409.433847
4452.371772
4428.193084
4407.127888
4464.836847
4422.132931
4421.627698
4446.583815
4433.117182
4426.348639
4429.398604
4404.133930
4437.902036
4421.201887
4434.652208
4433.936649
4408.791554
4439.355208
4463.479769
4409.840298
4440.140880
4440.401296
4436.512271
4397.523010
4420.836083
4495.514802
4466.581081
4426.770078
4435.596744
4436.067575
4439.116884
4418.726849
4424.298564
4418.169130
4435.272004
4417.174207
4434.827230
4412.646475
4435.905810
4430.575385
4432.304153
4435.730239
4442.936112
4438.211237
4432.655994
4422.110216
4441.006419
4446.542579
4411.439271
4409.207780
4434.162265
4450.459923
4404.971084
4436.377129
4459.676213
4386.102318
4451.042348
4405.120839
4387.742511
4431.027640
4435.203359
4429.014326
4389.838992
4471.988993
4397.903174
4417.943866
4417.498064
4473.346212
4353.864936
4415.317374
4432.907466
4433.736543
4419.105812
4426.909711
4407.798663
4451.595569
4436.087217
4400.313106
4414.617298
4449.278950
4451.271012
4417.945448
4407.288977
4466.450683
4439.224278
4436.414461
4389.512867
4390.341150
4466.732637
4455.817511
4440.685909
4405.683519
4405.287855
4429.286659
4442.438448
4442.089442
4374.724759
4471.272313
4431.421515
4463.788434
4417.304180
4434.197293
4436.368756
4430.318773
4438.793189
4443.206307
4415.095539
4409.205458
4454.926921
4428.664274
4406.664273
4400.824255
4452.300720
4437.146236
4412.863607
4399.955021
4440.338642
4461.641681
4447.573129
4334.851207
4470.664816
4464.109365
4436.673019
4472.927073
4425.578579
4443.435230
4458.058171
4439.856626
4423.960472
4401.459019
4404.720127
4439.129612
4431.161397
4433.866795
4419.179915
4416.541224
4418.337853
4443.481152
4433.811616
4416.665786
4401.173277
4466.032660
4426.856455
4419.121426
4415.870015
4440.833830
4406.303805
4446.438169
4376.501498
4445.638862
4314.735496
4503.343986
4438.179110
4417.170922
4432.072800
4487.467943
4424.005407
4441.070742
4398.453314
4476.880458
4353.428986
4436.040146
4448.799410
4431.057929
4435.557927
4426.740738
4444.545935
4420.778758
4428.319105
4421.069429
4444.085188
4434.482854
4398.897994
4421.253762
4441.601856
4407.174304
4466.190520
4382.843881
4458.158806
4395.444803
4477.638470
4475.324915
4504.013061
4412.240315
4415.784311
4383.112345
4438.096073
4404.456000
4437.436674
4450.978125
4447.656363
4445.823354
4350.755250
4454.429783
4426.130538
4433.036067
4419.895241
4427.876985
4409.626018
4428.957972
4425.986295
4404.447208
4429.320804
4453.756315
4431.684709
4441.283362
4416.496022
4415.179143
4440.920682
4432.158209
4433.651443
4423.676312
4433.971907
4504.783248
4450.894098
4434.856812
4440.105303
4421.884360
4390.637083
4459.938533
4415.076824
4437.871100
4440.193075
4441.627761
4411.507882
4426.107324
4427.934707
4436.994839
4434.620074
4433.418027
4439.349449
4444.087228
4446.157993
4392.674301
4404.671244
4446.881339
4463.574324
4420.109759
4395.572895
4404.039071
4417.338506
4458.170331
4401.674347
4386.026936
4429.620943
4393.010860
4415.520857
4425.199373
4434.602953
4408.291132
4446.413353
4385.739422
4396.006532
4477.825785
4470.806013
4408.512780
4430.010608
4431.279312
4414.795756
4425.249442
4435.915285
4417.732465
4396.523305
4435.794473
4438.886187
4422.202662
4461.615889
4431.182781
4443.130378
4443.623870
4449.399393
4474.871017
4381.317207
4443.274484
4440.719858
4447.245048
4430.770122
4426.529763
4425.860702
4450.873770
4443.238028
4465.313118
4468.655168
4441.303638
4380.286049
4416.635628
4399.502239
4432.603816
4421.764083
4443.176088
4441.408976
4407.103854
4438.804728
4445.859015
4451.832748
4428.229198
4412.237441
4441.073762
4405.350854
4399.260008
4424.063901
4425.585043
4425.029523
4447.713242
4425.563865
4454.687417
4428.784217
4429.587118
4440.598521
4437.824155
4424.232656
4429.034650
4447.235895
4415.569568
4491.544004
4399.029976
4452.410540
4426.780104
4429.864039
4428.776866
4413.731415
4431.889941
4432.064651
4414.918604
4411.990694
4424.351338
4433.648396
4447.965899
4389.983703
4466.530440
4418.253223
4438.722482
4395.814737
4445.600318
4400.421709
4387.987579
4421.422729
4461.942977
4437.490028
4428.869487
4458.869785
4428.593867
4419.248627
4439.913223
4428.340235
4444.575101
4350.582767
4390.154742
4403.313680
4417.126941
4432.273522
4437.970595
4403.087911
4456.102573
4404.277246
4417.490529
4444.752105
4416.992289
4398.670385
4411.077495
4443.534021
4415.493522
4412.381632
4437.655800
4427.412418
4463.894756
4381.298084
4427.266157
4429.942567
4424.686807
4417.223041
4423.956000
4423.269426
4442.805351
4465.579254
4442.725242
4364.891249
4450.050812
4472.011684
4415.168986
4426.879322
4428.162196
4423.623870
4453.918909
4406.069128
4432.646673
4461.061600
4456.036025
4445.672005
4429.004613
4410.737001
4436.929073
4457.647969
4425.153712
4433.155762
4402.680053
4403.205160
4453.071645
4360.484594
4422.393740
4431.695270
4435.146242
4425.030190
4446.866657
4412.371736
4409.717669
4400.602002
4373.573142
4451.179798
4399.813313
4432.384592
4433.470015
4432.715668
4412.069363
4444.299363
4411.545733
4419.951100
4401.912650
4439.000183
4441.927088
4404.362538
4417.507361
4419.928027
4421.474271
4381.726222
4418.364981
4469.887264
4384.922337
4452.869182
4460.851502
4458.951460
4429.338993
4432.481725
4429.549559
4416.998157
4453.949262
4419.837111
4461.372286
4471.868007
4465.307950
4432.078053
4401.887797
4420.757920
4440.645436
4427.665463
4408.278333
4436.740926
4444.376161
4420.922616
4446.980350
4430.030527
4431.274512
4453.675987
4418.869850
4422.294855
4424.499648
4448.528652
4422.250674
4420.499991
4447.574110
4393.654735
4471.504458
4441.378037
4435.410769
4404.803313
4440.699537
4415.198553
4459.244622
4392.089928
4422.741850
4329.612668
4400.207764
4403.038271
4436.350583
4417.239939
4437.219536
4438.813403
4413.842746
4429.896030
4416.463464
4414.543711
4415.159781
4431.792198
4433.767993
4435.783718
4407.413627
4446.802067
4460.482687
4414.278738
4396.683095
4474.479026
4373.757143
4437.807470
4413.177069
4405.279038
4445.141979
4398.323940
4431.666568
4461.328743
4442.115779
4397.134733
4402.800692
4468.808647
4445.671246
4434.518878
4422.956174
4427.128261
4434.402990
4428.392049
4417.031707
4452.641506
4444.076146
4422.979156
4432.785252
4436.820197
4422.672555
4423.838416
4427.804755
4459.354226
4408.805375
4430.403951
4457.516959
4435.014447
4332.111299
4401.634123
4425.036410
4419.500962
4437.890876
4453.622221
4473.183601
4407.385596
4442.406288
4451.995842
4401.678471
4361.630562
4422.229722
4438.381157
4434.838698
4409.437109
4440.370646
4434.048435
4409.674649
4428.878361
4420.093946
4418.218278
4428.176648
4428.575662
4434.329431
4399.305638
4455.336491
4376.661887
4421.922652
4461.340715
4391.581660
4524.640611
4394.158297
4430.649417
4415.747376
4437.345655
4430.298517
4446.133464
4442.860501
4421.403594
4499.108446
4451.938790
4419.153109
4430.521833
4430.028166
4419.958626
4428.103850
4428.862175
4434.863087
4451.262161
4427.279365
4432.969311
4423.800082
4408.378627
4421.085287
4403.689191
4452.113948
4436.555813
4449.558929
4434.649361
4417.575770
4431.597146
4426.209989
4476.604368
4443.817851
4459.225310
4422.735398
4461.004307
4473.596066
4427.769860
4428.832852
4466.462231
4434.094484
4483.595690
4434.576282
4426.935090
4433.109207
4436.204647
4405.942560
4432.895333
4396.934905
4449.162665
4418.631833
4417.579950
4445.353115
4416.512689
4432.727670
4435.154875
4401.566420
4443.164512
4413.520142
4418.850897
4412.843674
4442.734013
4443.548703
4438.004911
4459.943527
4466.221637
4449.719214
4432.842458
4365.684906
4389.585625
4380.024942
4347.547742
4394.261388
4429.535373
4432.000418
4420.225780
4417.238307
4442.755379
4446.483320
4423.116323
4430.571988
4437.021257
4453.434242
4423.482073
4449.168902
4428.785372
4423.461544
4458.778352
4407.234080
4405.055421
4450.007228
4415.340884
4430.872250
4444.544478
4417.766343
4435.608541
4429.603532
4467.265066
4446.927406
4358.883240
4459.426028
4485.822262
4395.057476
4445.291698
4431.368956
4423.852642
4435.675125
4423.997514
4423.180105
4407.502802
4419.799809
4430.086679
4480.739247
4421.686118
4421.137217
4428.928673
4422.694605
4444.206735
4404.491460
4439.201943
4429.728084
4444.886805
4382.880767
4413.011873
4417.665611
4435.702256
4383.880853
4437.392719
4369.794727
4396.537200
4459.447943
4474.396472
4473.261155
4391.233306
4423.854257
4432.145464
4420.227118
4424.270548
4429.823734
4453.853819
4451.387563
4414.216032
4413.575107
4399.362544
4421.801197
4400.711686
4445.916258
4435.585779
4418.823133
4450.148383
4416.693805
4427.281722
4464.539654
4476.591595
4378.277037
4424.326309
4417.579114
4434.780290
4414.592748
4399.438328
4443.413457
4398.518721
4466.746601
4458.451828
4413.780710
4407.241192
4421.476658
4441.890052
4423.196151
4426.726814
4427.042299
4418.083959
4423.369176
4445.485549
4412.662068
4425.047176
4427.697155
4442.932543
4408.931981
4438.505395
4417.424165
4398.408414
4448.817549
4454.703000