# vtk DataFile Version 2.0
mfree iwf
ASCII

DATASET UNSTRUCTURED_GRID
POINTS 6231 float
0.000000 0.000300 0.000000
0.000000 0.000310 0.000000
0.000000 0.000320 0.000000
0.000000 0.000330 0.000000
0.000000 0.000340 0.000000
0.000000 0.000350 0.000000
0.000000 0.000360 0.000000
0.000001 0.000370 0.000000
0.000001 0.000380 0.000000
0.000001 0.000390 0.000000
0.000001 0.000400 0.000000
0.000001 0.000410 0.000000
0.000001 0.000420 0.000000
0.000001 0.000430 0.000000
0.000001 0.000440 0.000000
0.000001 0.000450 0.000000
0.000002 0.000460 0.000000
0.000002 0.000470 0.000000
0.000002 0.000480 0.000000
0.000001 0.000492 0.000000
0.000006 0.000501 0.000000
0.001152 0.001184 0.000000
0.001226 0.001217 0.000000
0.001169 0.001190 0.000000
0.001239 0.001222 0.000000
0.001261 0.001226 0.000000
0.001310 0.001229 0.000000
0.001318 0.001227 0.000000
0.001330 0.001222 0.000000
0.001343 0.001219 0.000000
0.001372 0.001219 0.000000
0.000010 0.000300 0.000000
0.000010 0.000310 0.000000
0.000010 0.000320 0.000000
0.000010 0.000330 0.000000
0.000010 0.000340 0.000000
0.000010 0.000350 0.000000
0.000010 0.000360 0.000000
0.000010 0.000370 0.000000
0.000011 0.000380 0.000000
0.000011 0.000390 0.000000
0.000011 0.000400 0.000000
0.000011 0.000410 0.000000
0.000011 0.000420 0.000000
0.000011 0.000430 0.000000
0.000011 0.000440 0.000000
0.000011 0.000450 0.000000
0.000012 0.000460 0.000000
0.000011 0.000472 0.000000
0.000013 0.000478 0.000000
0.000009 0.000492 0.000000
0.000013 0.000498 0.000000
0.001280 0.001222 0.000000
0.001295 0.001223 0.000000
0.001303 0.001224 0.000000
0.001309 0.001221 0.000000
0.001325 0.001214 0.000000
0.001336 0.001212 0.000000
0.001350 0.001208 0.000000
0.001361 0.001209 0.000000
0.001366 0.001206 0.000000
0.001369 0.001215 0.000000
0.000020 0.000300 0.000000
0.000020 0.000310 0.000000
0.000020 0.000320 0.000000
0.000020 0.000330 0.000000
0.000021 0.000340 0.000000
0.000020 0.000350 0.000000
0.000021 0.000360 0.000000
0.000020 0.000370 0.000000
0.000021 0.000380 0.000000
0.000021 0.000390 0.000000
0.000020 0.000400 0.000000
0.000022 0.000410 0.000000
0.000020 0.000420 0.000000
0.000022 0.000430 0.000000
0.000020 0.000439 0.000000
0.000023 0.000451 0.000000
0.000021 0.000460 0.000000
0.000022 0.000470 0.000000
0.000021 0.000481 0.000000
0.000024 0.000494 0.000000
0.000020 0.000497 0.000000
0.001246 0.001212 0.000000
0.001275 0.001218 0.000000
0.001286 0.001219 0.000000
0.001291 0.001217 0.000000
0.001300 0.001209 0.000000
0.001315 0.001213 0.000000
0.001341 0.001205 0.000000
0.001356 0.001204 0.000000
0.001363 0.001196 0.000000
0.001370 0.001192 0.000000
0.000030 0.000300 0.000000
0.000030 0.000310 0.000000
0.000030 0.000320 0.000000
0.000031 0.000330 0.000000
0.000030 0.000340 0.000000
0.000031 0.000350 0.000000
0.000030 0.000360 0.000000
0.000031 0.000370 0.000000
0.000031 0.000380 0.000000
0.000031 0.000390 0.000000
0.000031 0.000400 0.000000
0.000031 0.000410 0.000000
0.000031 0.000419 0.000000
0.000031 0.000430 0.000000
0.000031 0.000440 0.000000
0.000030 0.000450 0.000000
0.000031 0.000459 0.000000
0.000036 0.000473 0.000000
0.000029 0.000478 0.000000
0.000032 0.000488 0.000000
0.000032 0.000497 0.000000
0.000063 0.000500 0.000000
0.001267 0.001213 0.000000
0.001284 0.001204 0.000000
0.001310 0.001203 0.000000
0.001319 0.001195 0.000000
0.001325 0.001207 0.000000
0.001329 0.001200 0.000000
0.001340 0.001197 0.000000
0.001346 0.001194 0.000000
0.001369 0.001184 0.000000
0.000040 0.000300 0.000000
0.000040 0.000310 0.000000
0.000040 0.000320 0.000000
0.000040 0.000330 0.000000
0.000040 0.000341 0.000000
0.000041 0.000350 0.000000
0.000040 0.000360 0.000000
0.000041 0.000369 0.000000
0.000040 0.000380 0.000000
0.000041 0.000390 0.000000
0.000041 0.000399 0.000000
0.000041 0.000410 0.000000
0.000042 0.000420 0.000000
0.000040 0.000430 0.000000
0.000042 0.000439 0.000000
0.000043 0.000450 0.000000
0.000042 0.000460 0.000000
0.000037 0.000469 0.000000
0.000045 0.000477 0.000000
0.000043 0.000496 0.000000
0.000040 0.000498 0.000000
0.001047 0.001045 0.000000
0.001274 0.001204 0.000000
0.001293 0.001203 0.000000
0.001297 0.001197 0.000000
0.001310 0.001204 0.000000
0.001330 0.001191 0.000000
0.001350 0.001185 0.000000
0.001348 0.001175 0.000000
0.001359 0.001187 0.000000
0.001366 0.001175 0.000000
0.000050 0.000300 0.000000
0.000050 0.000310 0.000000
0.000050 0.000320 0.000000
0.000049 0.000330 0.000000
0.000051 0.000339 0.000000
0.000050 0.000349 0.000000
0.000051 0.000360 0.000000
0.000049 0.000371 0.000000
0.000052 0.000379 0.000000
0.000050 0.000390 0.000000
0.000052 0.000400 0.000000
0.000048 0.000410 0.000000
0.000053 0.000419 0.000000
0.000051 0.000430 0.000000
0.000053 0.000440 0.000000
0.000047 0.000451 0.000000
0.000054 0.000458 0.000000
0.000052 0.000470 0.000000
0.000055 0.000483 0.000000
0.000048 0.000488 0.000000
0.000050 0.000498 0.000000
0.001265 0.001220 0.000000
0.001220 0.001209 0.000000
0.001286 0.001195 0.000000
0.001295 0.001181 0.000000
0.001313 0.001186 0.000000
0.001331 0.001184 0.000000
0.001323 0.001180 0.000000
0.001341 0.001183 0.000000
0.001356 0.001175 0.000000
0.001362 0.001165 0.000000
0.000060 0.000300 0.000000
0.000060 0.000310 0.000000
0.000060 0.000320 0.000000
0.000060 0.000331 0.000000
0.000061 0.000340 0.000000
0.000059 0.000350 0.000000
0.000062 0.000359 0.000000
0.000060 0.000368 0.000000
0.000062 0.000381 0.000000
0.000059 0.000390 0.000000
0.000063 0.000399 0.000000
0.000060 0.000410 0.000000
0.000064 0.000419 0.000000
0.000058 0.000430 0.000000
0.000065 0.000439 0.000000
0.000061 0.000449 0.000000
0.000065 0.000460 0.000000
0.000055 0.000471 0.000000
0.000064 0.000475 0.000000
0.000068 0.000485 0.000000
0.000058 0.000496 0.000000
0.001255 0.001219 0.000000
0.001264 0.001204 0.000000
0.001280 0.001186 0.000000
0.001301 0.001188 0.000000
0.001312 0.001175 0.000000
0.001311 0.001168 0.000000
0.001341 0.001166 0.000000
0.001332 0.001173 0.000000
0.001351 0.001164 0.000000
0.001359 0.001156 0.000000
0.000070 0.000300 0.000000
0.000070 0.000310 0.000000
0.000070 0.000319 0.000000
0.000070 0.000329 0.000000
0.000071 0.000340 0.000000
0.000070 0.000350 0.000000
0.000072 0.000359 0.000000
0.000067 0.000372 0.000000
0.000082 0.000376 0.000000
0.000070 0.000390 0.000000
0.000073 0.000400 0.000000
0.000068 0.000410 0.000000
0.000074 0.000420 0.000000
0.000068 0.000429 0.000000
0.000076 0.000438 0.000000
0.000066 0.000452 0.000000
0.000078 0.000458 0.000000
0.000072 0.000470 0.000000
0.000076 0.000486 0.000000
0.000068 0.000495 0.000000
0.000076 0.000496 0.000000
0.001038 0.001024 0.000000
0.001254 0.001207 0.000000
0.001275 0.001196 0.000000
0.001294 0.001166 0.000000
0.001311 0.001188 0.000000
0.001323 0.001168 0.000000
0.001334 0.001165 0.000000
0.001327 0.001157 0.000000
0.001347 0.001155 0.000000
0.001355 0.001147 0.000000
0.000080 0.000300 0.000000
0.000080 0.000310 0.000000
0.000081 0.000321 0.000000
0.000079 0.000331 0.000000
0.000081 0.000340 0.000000
0.000080 0.000351 0.000000
0.000082 0.000361 0.000000
0.000075 0.000370 0.000000
0.000075 0.000383 0.000000
0.000080 0.000392 0.000000
0.000090 0.000397 0.000000
0.000079 0.000411 0.000000
0.000087 0.000417 0.000000
0.000078 0.000431 0.000000
0.000086 0.000445 0.000000
0.000076 0.000448 0.000000
0.000084 0.000464 0.000000
0.000074 0.000470 0.000000
0.000088 0.000472 0.000000
0.000085 0.000482 0.000000
0.000084 0.000495 0.000000
0.001245 0.001218 0.000000
0.001216 0.001214 0.000000
0.001278 0.001175 0.000000
0.001289 0.001183 0.000000
0.001302 0.001173 0.000000
0.001307 0.001159 0.000000
0.001318 0.001159 0.000000
0.001337 0.001153 0.000000
0.001344 0.001147 0.000000
0.001351 0.001138 0.000000
0.000090 0.000300 0.000000
0.000090 0.000310 0.000000
0.000090 0.000319 0.000000
0.000090 0.000329 0.000000
0.000092 0.000339 0.000000
0.000089 0.000349 0.000000
0.000092 0.000361 0.000000
0.000087 0.000369 0.000000
0.000093 0.000379 0.000000
0.000088 0.000387 0.000000
0.000083 0.000404 0.000000
0.000093 0.000409 0.000000
0.000086 0.000425 0.000000
0.000097 0.000426 0.000000
0.000090 0.000434 0.000000
0.000097 0.000455 0.000000
0.000087 0.000453 0.000000
0.000098 0.000472 0.000000
0.000106 0.000480 0.000000
0.000089 0.000494 0.000000
0.000094 0.000495 0.000000
0.001056 0.001061 0.000000
0.001248 0.001201 0.000000
0.001237 0.001208 0.000000
0.001267 0.001194 0.000000
0.001283 0.001164 0.000000
0.001311 0.001150 0.000000
0.001324 0.001149 0.000000
0.001331 0.001143 0.000000
0.001339 0.001137 0.000000
0.001346 0.001129 0.000000
0.000100 0.000300 0.000000
0.000100 0.000310 0.000000
0.000100 0.000320 0.000000
0.000100 0.000331 0.000000
0.000101 0.000341 0.000000
0.000098 0.000350 0.000000
0.000102 0.000359 0.000000
0.000100 0.000370 0.000000
0.000102 0.000380 0.000000
0.000099 0.000391 0.000000
0.000101 0.000400 0.000000
0.000103 0.000407 0.000000
0.000100 0.000417 0.000000
0.000100 0.000437 0.000000
0.000108 0.000442 0.000000
0.000096 0.000445 0.000000
0.000107 0.000460 0.000000
0.000096 0.000465 0.000000
0.000094 0.000481 0.000000
0.000106 0.000491 0.000000
0.000101 0.000494 0.000000
0.001175 0.001194 0.000000
0.001184 0.001199 0.000000
0.001210 0.001211 0.000000
0.001290 0.001170 0.000000
0.001299 0.001157 0.000000
0.001300 0.001148 0.000000
0.001321 0.001140 0.000000
0.001312 0.001137 0.000000
0.001334 0.001132 0.000000
0.001341 0.001121 0.000000
0.000110 0.000300 0.000000
0.000110 0.000310 0.000000
0.000110 0.000320 0.000000
0.000110 0.000329 0.000000
0.000110 0.000339 0.000000
0.000111 0.000351 0.000000
0.000109 0.000361 0.000000
0.000112 0.000370 0.000000
0.000110 0.000379 0.000000
0.000110 0.000389 0.000000
0.000112 0.000398 0.000000
0.000111 0.000415 0.000000
0.000116 0.000423 0.000000
0.000105 0.000427 0.000000
0.000114 0.000432 0.000000
0.000107 0.000450 0.000000
0.000116 0.000462 0.000000
0.000110 0.000470 0.000000
0.000116 0.000480 0.000000
0.000111 0.000493 0.000000
0.000119 0.000492 0.000000
0.001120 0.001152 0.000000
0.001066 0.001080 0.000000
0.001242 0.001196 0.000000
0.001262 0.001184 0.000000
0.001251 0.001180 0.000000
[...]
POINT_DATA 6231
SCALARS density float 1
LOOKUP_TABLE default
4416.222963
4427.176894
4423.360152
4424.078301
4423.523182
4422.773019
4426.673940
4427.726064
4429.717468
4430.576314
4429.245594
4434.296491
4428.484185
4428.272588
4431.039850
4440.646180
4423.741752
4431.733502
4413.530847
4424.534204
4411.242059
4431.337846
4423.222954
4441.978125
4433.585288
4417.574185
4404.899763
4426.210883
4448.190910
4448.119068
4414.576960
4417.868297
4424.324650
4426.503489
4427.296689
4430.628430
4428.545505
4423.828130
4423.929015
4424.426969
4428.421321
4422.457885
4424.855660
4424.866037
4441.562869
4415.963399
4427.048684
4410.826821
4441.972967
4462.729621
4459.517801
4416.483755
4411.340398
4416.451341
4441.396880
4496.301964
4407.514865
4406.509827
4429.105737
4403.778704
4451.071607
4437.958321
4420.426266
4432.493031
4426.581941
4424.123466
4423.708984
4426.233538
4429.405920
4438.684732
4424.279061
4433.159514
4429.165436
4442.404461
4418.661111
4435.881126
4415.912578
4475.241197
4401.215491
4455.375257
4351.591079
4450.421889
4421.566494
4427.574211
4436.217713
4420.739917
4486.181869
4352.256643
4354.373074
4409.950545
4420.193355
4426.845858
4405.561378
4428.849943
4430.895311
4422.853349
4437.669664
4434.989384
4432.321561
4425.231370
4424.937473
4423.149652
4438.031549
4409.062415
4433.719647
4417.865117
4447.017139
4405.670073
4429.751222
4388.004540
4453.243815
4371.196646
4552.064684
4372.796901
4435.092558
4461.309562
4431.685479
4463.602098
4336.597126
4481.582748
4452.728390
4420.588013
4479.312889
4426.880177
4433.386341
4428.333935
4434.336827
4435.591379
4418.419980
4439.578032
4428.878554
4442.879615
4425.708797
4434.353973
4419.536918
4446.875889
4409.099594
4446.145271
4414.359382
4451.246553
4389.437504
4512.456949
4310.939663
4418.653281
4384.588570
4432.077831
4412.694927
4431.255324
4422.490933
4492.403592
4443.548318
4405.532049
4481.613629
4445.882043
4413.524191
4430.702506
4431.199244
4429.832101
4431.759269
4437.322039
4440.172284
4412.695786
4442.396492
4408.403131
4437.997358
4415.935917
4442.058600
4404.156518
4446.099863
4375.361626
4476.852796
4363.350123
4472.209107
4363.399347
4537.234038
4382.318045
4434.704380
4423.579423
4455.543558
4462.312788
4471.537434
4459.209662
4396.841005
4391.400015
4425.175485
4420.641138
4427.686320
4439.892091
4423.936407
4437.398077
4430.380754
4430.755890
4429.771395
4439.443902
4417.055691
4448.310844
4422.572365
4440.187218
4418.674522
4447.904946
4404.878162
4469.312223
4398.430181
4513.562110
4379.200604
4468.425875
4433.131526
4412.542481
4386.486902
4388.880059
4392.571183
4431.054233
4445.958180
4419.824709
4413.012043
4416.528196
4436.607582
4432.574677
4431.833770
4423.658393
4437.694957
4411.430877
4442.377555
4423.243525
4423.314916
4422.202657
4444.977434
4399.949533
4438.781700
4412.733669
4434.709632
4443.910309
4459.424396
4429.620919
4454.351112
4451.887032
4414.374340
4389.805677
4434.615466
4468.608905
4448.636388
4428.132780
4424.834832
4409.067303
4449.338411
4440.782174
4433.608331
4416.806078
4431.230766
4424.152498
4428.823247
4424.831160
4415.131413
4443.220116
4423.206901
4436.773246
4421.703802
4446.215902
4421.456336
4429.018174
4421.842285
4438.747002
4448.981096
4400.420806
4459.198061
4447.561707
4369.015568
4462.717679
4412.079761
4426.147111
4413.947288
4428.183456
4438.040215
4389.310041
4445.963660
4438.901834
4401.907340
4442.637370
4433.501232
4424.693195
4436.024841
4433.781918
4414.034232
4439.700988
4426.320545
4412.024054
4447.135628
4420.437028
4420.983796
4436.187548
4418.025645
4426.597567
4456.532029
4411.582244
4389.637619
4427.365854
4414.766563
4434.639965
4424.873558
4412.333917
4428.574323
4414.572912
4438.930968
4471.988264
4410.726648
4384.157337
4440.143457
4434.982060
4436.326879
4411.915425
4430.354124
4433.677236
4413.325424
4443.695387
4426.740547
4421.842730
4450.869772
4413.202797
4451.457627
4418.357046
4440.500074
4436.384564
4411.490777
4405.993169
4446.056222
4457.562074
4425.938610
4463.185278
4428.208488
4428.545750
4415.348935
4426.454435
4432.127535
4428.298080
4440.404326
4444.134692
4420.441219
4409.489971
4470.023988
4449.013256
4425.902832
4430.050430
4433.055661
4434.077079
4435.635207
4419.716922
4418.911898
4437.639577
4417.444211
4428.199305
4426.370404
4408.739203
4439.445801
4413.319718
4443.688272
4418.486177
4425.428596
4474.808705
4403.708263
4456.814728
4408.465702
4413.100998
4439.509934
4440.887624
4399.699016
4392.135600
4394.496436
4445.130506
4441.597303
4415.339923
4421.989181
4452.210763
4430.620493
4426.328579
4427.670069
4415.237392
4439.795113
4445.872901
4407.331629
4447.362014
4408.741120
4443.928622
4432.666233
4422.098817
4429.828392
4459.375971
4413.688435
4402.667456
4413.399424
4383.947333
4432.505239
4435.506367
4391.060468
4434.859139
4417.892748
4426.175299
4458.401736
4452.493956
4404.733777
4353.515816
4458.549163
4387.737313
4419.659506
4437.697749
4429.493186
4432.633410
4442.891674
4420.245716
4412.105165
4427.457497
4439.943341
4416.793747
4418.547371
4417.871284
4414.603287
4445.284998
4418.865421
4395.624930
4474.142050
4410.694967
4466.519573
4489.281393
4417.181308
4440.386474
4433.155051
4423.141375
4423.156898
4423.505252
4439.124432
4440.239982
4460.353875
4466.684434
4488.519599
4453.337799
4433.134761
4433.398603
4431.218174
4414.791021
4436.248863
4435.606005
4441.440724
4403.331634
4445.686125
4412.043076
4425.061566
4448.528268
4461.897289
4436.821259
4428.928153
4361.863473
4413.874062
4484.168162
4569.638099
4389.369997
4379.447913
4425.620018
4422.011062
4434.257291
4450.197001
4415.296869
4457.977065
4430.991706
4404.200758
4409.029896
4445.047478
4428.516375
4437.097692
4433.197541
4423.690100
4439.295670
4393.595371
4435.260693
4431.399728
4389.877971
4430.533534
4449.701681
4429.280360
4401.348032
4406.629841
4447.485983
4430.891096
4520.337486
4344.997524
4325.874586
4459.479526
4393.306779
4426.484472
4428.958695
4454.186933
4475.100642
4443.209767
4444.537973
4432.652782
4388.929823
4422.030434
4414.191121
4433.081484
4431.638646
4425.476868
4426.048005
4431.519859
4451.477431
4420.061477
4428.176299
4457.330780
4444.180152
4443.798423
4418.038121
4472.314107
4396.360978
4436.983428
4437.230287
4403.054644
4487.402637
4467.730935
4421.559440
4406.448728
4423.769420
4409.104053
4469.184991
4369.401429
4457.916881
4471.998086
4427.362238
4404.443937
4430.732112
4430.599498
4438.197297
4425.969643
4433.504053
4449.804390
4407.217041
4439.200203
4388.351631
4442.312178
4448.725879
4400.487151
4417.094863
4429.547172
4419.663057
4460.035702
4419.744414
4431.961436
4397.455335
4468.435011
4382.158617
4391.757676
4419.301763
4426.615429
4432.133580
4440.507325
4394.820377
4467.151016
4429.331585
4394.963549
4458.394626
4425.858482
4436.601372
4424.601979
4430.436185
4420.719080
4435.877610
4430.589133
4424.633703
4454.095427
4416.448546
4411.317582
4429.904151
4433.776342
4463.182815
4437.659009
4435.902216
4409.149916
4450.868276
4391.624635
4434.801052
4423.615943
4437.153472
4385.887131
4424.506977
4429.679285
4414.429831
4453.867164
4422.636729
4468.624450
4467.677258
4413.957552
4427.321217
4421.709974
4418.864509
4437.671248
4428.534776
4408.563341
4446.487741
4395.560494
4449.985688
4400.166412
4446.457905
4432.163059
4413.484167
4403.765197
4441.420493
4413.064019
4406.167384
4450.296707
4369.660386
4464.451045
4424.968361
4555.260891
4376.577914
4470.744128
4418.438069
4411.619707
4435.560354
4387.287465
4461.380926
4402.858968
4413.290791
4428.475478
4422.564280
4431.775889
4424.478901
4424.983417
4431.593065
4415.709370
4443.210656
4419.653372
4436.487860
4397.113466
4429.776044
4460.759091
4419.376096
4442.849163
4429.458789
4448.922475
4437.443198
4473.980494
4474.838229
4389.166066
4384.460648
4436.331999
4418.897317
4433.976143
4465.750721
4442.372434
4398.790840
4424.496103
4453.537714
4465.869069
4424.727035
4412.443729
4432.888322
4422.504302
4430.684929
4438.681257
4403.359688
4451.164949
4388.401773
4423.923737
4424.044203
4400.282889
4419.021669
4407.334483
4458.768336
4424.934602
4394.894424
4461.022857
4428.292092
4404.725531
4394.795770
4458.201156
4415.646092
4448.787768
4419.414051
4425.220942
4440.005557
4398.837939
4387.889253
4455.130844
4358.744992
4419.271473
4442.612606
4422.611497
4438.762486
4422.297807
4422.570649
4436.537302
4413.844622
4452.397627
4411.581810
4430.536394
4442.099189
4402.834799
4437.212300
4454.559918
4426.494351
4392.196771
4455.836856
4418.570987
4412.929874
4449.480345
4451.395569
4427.396017
4424.269499
4415.108018
4460.703681
4403.574804
4432.738608
4472.472774
4340.729080
4488.419882
4392.013676
4423.460687
4422.496422
4431.631334
4422.003855
4423.566561
4436.254700
4408.189548
4430.291897
4422.477395
4400.607358
4440.214831
4419.574818
4441.468575
4387.180906
4426.116140
4425.823546
4428.941327
4413.702958
4451.605271
4402.890594
4428.700817
4424.562454
4408.669636
4429.964410
4426.077519
4429.167626
4453.157799
4442.618932
4407.823560
4445.393052
4435.451292
4443.429269
4431.093238
4426.784113
4434.457831
4434.884823
4408.795849
4450.331971
4391.437287
4452.210225
4438.916694
4422.017715
4433.405892
4431.812078
4444.652142
4455.326605
4389.456695
4455.651202
4402.751427
4452.748918
4438.557447
4468.217175
4414.822346
4420.652889
4461.044425
4410.567114
4435.449002
4450.311770
4432.713563
4456.168198
4418.449496
4422.058625
4433.357448
4434.290162
4428.984611
4418.458659
4438.777401
4419.498371
4442.563984
4432.419720
4421.806581
4404.827541
4455.789190
4435.975245
4447.439655
4446.646415
4427.155347
4427.127941
4447.465272
4397.757583
4453.674496
4368.581296
4427.368025
4431.473345
4414.935135
4464.525368
4440.720700
4415.644031
4392.578918
4444.751429
4438.568568
4446.522421
4412.001924
4421.632184
4424.947858
4439.929072
4429.572107
4428.237109
4424.883270
4416.750765
4417.017125
4443.207438
4425.419000
4428.175875
4397.749621
4465.664330
4396.277237
4408.498001
4391.745068
4451.552346
4426.524780
4460.429308
4421.291901
4437.466032
4424.061928
4433.237911
4427.816851
4409.492870
4424.323849
4453.876021
4415.253549
4421.554697
4477.852966
4409.878748
4440.210189
4429.821973
4431.510432
4420.062733
4426.301611
4431.921955
4445.983723
4436.796944
4419.432817
4419.220795
4441.626516
4415.158892
4412.596332
4413.458840
4447.120427
4423.833234
4460.623164
4404.071635
4458.881952
4416.369985
4436.713704
4415.390823
4423.631676
4424.461164
4430.306019
4412.240577
4416.296744
4427.364422
4432.003836
4426.296980
4407.274351
4427.262432
4431.121854
4425.627507
4429.692623
4446.569118
4418.742928
4407.882506
4435.486507
4435.091148
4423.879498
4414.675353
4443.759743
4433.170603
4433.311236
4443.187695
4390.361523
4446.492190
4396.352675
4457.355578
4428.302072
4431.680103
4410.022697
4427.956191
4419.298553
4426.208877
4471.714602
4405.946158
4404.758215
4448.441322
4397.946877
4436.291649
4410.610851
4423.789171
4430.273642
4434.264418
4412.331730
4437.832428
4444.984297
4429.869865
4424.605715
4437.537981
4439.679394
4412.278402
4434.053914
4437.931848
4400.076593
4428.171402
4433.916012
4416.475427
4372.788991
4376.077557
4461.677026
4434.917889
4409.744262
4422.968019
4403.161210
4449.785745
4419.477104
4413.968788
4464.449435
4427.356479
4422.226425
4445.255501
4432.213506
4434.524760
4425.201718
4434.644919
4435.993836
4401.349315
4432.599548
4436.267018
4414.320581
4432.120893
4462.194147
4416.045800
4438.116892
4443.050362
4431.902851
4398.528604
4419.583814
4496.536813
4463.946417
4430.537290
4436.515439
4431.896863
4425.323939
4421.517549
4412.659564
4420.346525
4438.839505
4414.639908
4428.884704
4415.623765
4438.233422
4434.659497
4427.186257
4430.780138
4436.311690
4421.806228
4447.247947
4435.165396
4416.799912
4440.218621
4427.605233
4414.499459
4429.589584
4444.582849
4412.778827
4438.130092
4461.678199
4386.244532
4456.339329
4399.780033
4389.098001
4429.510613
4435.746084
4429.398558
4400.706214
4472.638411
4403.306967
4413.515817
4423.840585
4467.872030
4360.664233
4417.298194
4433.276071
4433.183853
4438.666655
4425.471163
4420.979527
4441.099105
4404.106126
4423.983186
4428.686842
4442.769571
4433.919094
4429.671949
4414.988937
4462.092231
4423.939031
4432.856602
4397.977351
4394.506225
4464.397323
4457.882360
4444.732006
4400.448276
4395.907973
4430.449834
4437.010956
4450.143775
4374.762418
4475.451640
4430.935016
4455.970680
4418.436665
4440.795722
4435.083311
4420.713756
4431.432256
4435.814530
4415.857920
4411.452865
4410.175748
4444.380265
4410.357779
4408.680057
4441.046051
4422.854643
4425.049372
4401.657043
4432.476282
4464.170683
4451.304778
4332.358067
4475.648228
4461.115146
4430.322294
4474.987681
4426.406925
4435.666957
4457.016229
4440.785979
4431.504691
4402.887497
4412.524945
4437.576169
4435.201313
4433.657714
4429.970133
4434.064633
4412.115598
4439.663870
4428.660549
4418.960311
4432.080950
4450.661973
4396.477606
4432.457987
4417.519517
4424.702677
4411.506349
4450.016578
4365.482389
4452.395261
4326.710431
4494.311282
4436.684590
4421.525367
4425.722711
4498.351547
4422.158293
4436.596005
4397.413635
4465.924991
4353.770920
4436.250101
4445.025659
4429.786575
4430.503208
4430.171349
4428.900272
4424.498024
4431.791825
4417.376584
4437.434660
4406.410980
4414.718708
4447.146465
4448.053629
4402.743412
4449.533833
4385.449911
4468.153192
4391.209831
4473.951081
4464.056067
4506.519123
4421.525246
4420.187241
4368.438544
4423.167299
4415.651909
4441.069216
4458.153327
4444.340453
4436.533564
4354.648695
4453.612805
4422.437066
4429.395536
4430.903580
4428.157303
4422.766402
4428.811261
4411.108348
4435.553397
4442.417647
4439.864886
4417.758413
4430.718383
4423.476684
4442.897063
4438.648119
4423.607773
4436.205570
4427.372538
4431.373663
4502.451819
4444.754734
4427.414994
4437.854218
4424.576586
4409.917495
4446.821422
4416.285051
4441.987130
4431.868813
4448.554196
4414.728057
4423.927819
4431.396952
4430.862824
4431.423829
4445.808152
4445.653959
4417.976910
4448.295466
4396.917357
4414.733175
4442.746033
4445.969640
4424.582139
4382.569572
4433.529793
4416.418285
4460.801266
4406.570974
4394.789193
4430.258896
4391.196001
4422.359484
4426.562471
4439.533024
4428.156921
4451.893631
4386.441851
4384.166648
4482.041151
4460.183033
4407.703650
4432.398386
4435.016130
4407.687175
4433.826723
4407.702215
4435.510552
4402.779124
4425.286249
4446.301872
4427.251594
4442.336300
4421.956820
4457.948043
4447.922571
4434.568401
4453.082149
4375.493341
4450.884730
4429.889943
4446.306203
4429.853462
4442.269002
4427.445139
4439.170080
4439.639501
4453.550410
4480.011925
4447.840234
4392.872575
4419.951584
4402.040843
4431.773087
4430.592722
4429.936505
4445.013102
4403.884746
4421.427916
4433.613575
4424.791924
4423.772541
4423.882920
4425.197588
4407.329338
4418.656613
4409.465642
4430.970806
4418.515582
4432.313473
4418.226927
4429.759064
4439.311920
4432.558116
4430.640820
4434.307049
4419.295914
4438.711018
4435.713217
4398.411151
4493.123225
4398.875832
4452.732557
4425.781984
4427.429693
4427.155160
4430.154599
4399.034467
4446.329468
4429.097186
4421.986768
4423.104063
4418.729303
4433.275108
4440.065146
4458.755412
4407.461054
4435.673219
4417.883531
4426.153828
4426.974418
4400.056361
4422.995385
4438.897337
4428.212725
4408.578861
4441.719399
4429.548927
4447.219017
4440.790394
4443.080652
4438.342775
4353.137489
4396.491878
4406.642058
4420.317294
4423.656513
4436.514927
4412.134775
4443.353733
4390.329802
4442.120170
4433.709262
4428.757751
4400.328134
4375.897138
4442.594612
4425.723684
4408.861256
4412.300209
4443.984327
4482.322154
4382.685986
4438.987164
4438.247601
4433.035011
4427.861769
4432.983157
4427.497251
4414.005832
4458.257177
4437.289038
4389.263477
4449.914419
4467.711745
4418.309221
4429.742871
4425.439061
4416.495278
4408.090095
4422.589101
4427.645393
4439.342895
4431.597593
4455.453653
4419.529799
4394.711932
4424.582721
4458.759380
4422.764769
4438.365002
4421.861058
4426.725566
4390.814421
4383.611194
4420.679186
4442.595849
4433.752200
4414.766839
4440.083006
4408.320172
4429.703218
4403.783927
4391.556859
4450.520205
4407.995481
4427.489859
4425.576642
4419.864889
4430.767097
4448.432728
4437.481247
4431.709828
4420.638014
4440.657294
4428.381857
4384.376436
4445.045355
4455.327080
4424.441574
4419.364936
4409.142522
4423.459389
4432.081752
4454.771239
4454.582792
4427.733318
4443.308001
4430.538626
4436.219042
4408.970890
4462.057801
4445.131468
4434.258385
4452.537683
4455.793371
4430.175190
4404.743048
4423.780162
4430.682966
4419.977883
4404.841325
4437.962533
4400.966693
4440.344700
4428.417706
4430.552328
4414.774626
4463.162256
4397.259054
4440.703176
4406.259937
4424.545218
4416.271539
4428.688164
4430.143155
4400.119053
4467.403259
4440.833689
4432.055264
4405.499127
4449.878012
4400.080137
4437.926212
4392.448948
4422.585622
4375.044929
4401.989844
4411.088676
4428.369056
4431.244722
4430.444975
4432.578766
4446.213332
4426.050527
4411.067973
4422.960575
4441.870644
4422.121163
4440.597695
4435.077733
4416.749277
4439.257248
4424.697158
4400.167670
4431.182304
4462.183953
4392.159332
4432.335488
4418.194031
4398.991979
4437.111804
4425.257006
4443.479231
4464.963178
4437.993977
4412.776587
4406.539807
4453.852655
4448.826491
4428.429825
4421.995719
4430.493138
4436.893114
4396.122741
4422.781187
4454.653946
4429.767304
4424.026071
4427.249250
4434.147035
4410.064231
4439.418427
4449.931111
4436.356830
4425.973315
4425.184836
4441.509227
4446.069362
4345.013152
4403.032084
4425.659754
4419.661411
4436.440941
4457.191116
4479.367584
4439.894909
4447.595638
4422.726359
4407.451895
4383.714801
4430.709184
4436.902129
4427.136603
4425.531191
4448.082872
4428.974208
4427.194674
4431.976589
4418.586104
4412.697976
4425.587343
4423.753506
4430.412382
4418.955492
4453.898383
4382.730165
4430.175330
4473.914784
4391.826291
4536.613557
4390.563509
4425.253365
4414.810335
4426.039021
4442.729840
4436.682815
4411.832819
4458.151834
4471.210423
4449.345178
4419.501609
4431.401377
4438.719756
4416.342144
4426.484044
4419.698711
4423.186297
4433.820491
4429.515808
4426.674053
4432.112255
4396.177167
4428.527564
4399.130775
4444.592475
4440.409799
4444.319485
4428.394708
4411.306177
4432.132103
4427.708765
4465.822159
4441.021005
4462.438074
4421.045981
4459.203907
4479.402095
4412.633048
4383.476003
4463.996197
4434.958746
4461.049176
4432.364273
4428.085408
4438.077767
4436.899560
4413.749507
4450.961392
4409.773550
4450.741271
4414.988990
4436.765081
4427.262401
4424.189311
4425.200875
4442.614778
4395.353053
4445.266370
4426.008097
4396.980328
4441.103081
4449.931180
4440.278447
4436.970400
4457.186893
4468.378198
4447.667752
4434.839091
4377.455395
4376.555382
4377.888545
4359.411828
4404.959554
4432.742513
4434.226697
4416.697791
4418.012771
4433.508236
4432.771397
4421.767015
4441.707747
4428.838337
4445.948666
4435.756135
4458.485119
4430.691404
4426.569975
4459.964107
4421.906080
4418.075428
4450.272365
4393.816015
4429.263424
4449.620568
4418.369846
4435.202804
4431.920698
4461.393473
4446.315172
4391.223523
4460.483466
4446.134820
4417.498533
4444.017664
4436.416402
4425.450532
4443.083901
4423.584218
4438.777483
4417.349145
4409.360179
4433.024366
4472.200593
4410.311947
4436.628635
4419.085050
4421.554735
4452.011885
4401.096722
4439.543786
4426.034834
4452.651919
4390.678996
4411.755973
4416.864687
4433.671580
4378.564325
4442.040325
4377.184298
4414.695264
4443.553315
4464.421678
4465.339078
4410.010048
4419.618822
4430.013510
4416.710601
4424.549174
4430.353431
4450.853862
4439.554943
4417.927405
4413.181436
4406.476079
4424.690964
4390.857957
4446.691902
4438.549750
4428.337642
4443.435140
4440.387650
4421.512083
4460.958876
4470.513848
4380.697613
4423.426890
4418.945446
4434.204588
4413.956671
4390.797999
4442.749945
4398.641956
4464.434313
4432.494359
4405.201789
4400.192679
4424.770032
4439.816407
4436.923169
4417.476721
4428.748595
4418.855529
4433.444507
4437.781652
4420.673483
4414.513221
4447.935361
4430.356033
4405.266385
4434.169070
4419.323181
4392.457974
4438.673425
4455.959775