# vtk DataFile Version 2.0
mfree iwf
ASCII

DATASET UNSTRUCTURED_GRID
POINTS 6231 float
0.000000 0.000300 0.000000
0.000000 0.000310 0.000000
0.000000 0.000320 0.000000
0.000000 0.000330 0.000000
0.000000 0.000340 0.000000
0.000000 0.000350 0.000000
0.000000 0.000360 0.000000
0.000001 0.000370 0.000000
0.000001 0.000380 0.000000
0.000001 0.000390 0.000000
0.000001 0.000400 0.000000
0.000001 0.000410 0.000000
0.000001 0.000420 0.000000
0.000001 0.000430 0.000000
0.000001 0.000440 0.000000
0.000002 0.000450 0.000000
0.000002 0.000460 0.000000
0.000002 0.000471 0.000000
0.000002 0.000480 0.000000
0.000002 0.000492 0.000000
0.000006 0.000501 0.000000
0.000737 0.000919 0.000000
0.000806 0.000963 0.000000
0.000753 0.000929 0.000000
0.000818 0.000969 0.000000
0.000839 0.000977 0.000000
0.000887 0.000986 0.000000
0.000896 0.000985 0.000000
0.000908 0.000981 0.000000
0.000921 0.000980 0.000000
0.000952 0.000983 0.000000
0.000010 0.000300 0.000000
0.000010 0.000310 0.000000
0.000010 0.000320 0.000000
0.000010 0.000330 0.000000
0.000010 0.000340 0.000000
0.000010 0.000350 0.000000
0.000010 0.000360 0.000000
0.000011 0.000370 0.000000
0.000011 0.000380 0.000000
0.000011 0.000390 0.000000
0.000011 0.000400 0.000000
0.000011 0.000410 0.000000
0.000011 0.000420 0.000000
0.000011 0.000430 0.000000
0.000011 0.000440 0.000000
0.000011 0.000450 0.000000
0.000012 0.000460 0.000000
0.000012 0.000472 0.000000
0.000013 0.000478 0.000000
0.000009 0.000492 0.000000
0.000013 0.000498 0.000000
0.000858 0.000975 0.000000
0.000873 0.000978 0.000000
0.000881 0.000979 0.000000
0.000887 0.000977 0.000000
0.000904 0.000973 0.000000
0.000915 0.000972 0.000000
0.000930 0.000970 0.000000
0.000941 0.000972 0.000000
0.000947 0.000971 0.000000
0.000949 0.000979 0.000000
0.000020 0.000300 0.000000
0.000020 0.000310 0.000000
0.000020 0.000320 0.000000
0.000020 0.000330 0.000000
0.000020 0.000340 0.000000
0.000020 0.000350 0.000000
0.000020 0.000360 0.000000
0.000021 0.000370 0.000000
0.000020 0.000380 0.000000
0.000021 0.000390 0.000000
0.000021 0.000400 0.000000
0.000022 0.000410 0.000000
0.000021 0.000420 0.000000
0.000022 0.000430 0.000000
0.000020 0.000440 0.000000
0.000023 0.000451 0.000000
0.000021 0.000460 0.000000
0.000022 0.000470 0.000000
0.000021 0.000481 0.000000
0.000024 0.000494 0.000000
0.000020 0.000497 0.000000
0.000827 0.000961 0.000000
0.000855 0.000970 0.000000
0.000865 0.000973 0.000000
0.000870 0.000971 0.000000
0.000880 0.000965 0.000000
0.000895 0.000970 0.000000
0.000922 0.000966 0.000000
0.000937 0.000967 0.000000
0.000945 0.000959 0.000000
0.000952 0.000957 0.000000
0.000030 0.000300 0.000000
0.000030 0.000310 0.000000
0.000030 0.000320 0.000000
0.000030 0.000330 0.000000
0.000030 0.000340 0.000000
0.000030 0.000350 0.000000
0.000031 0.000360 0.000000
0.000030 0.000370 0.000000
0.000031 0.000380 0.000000
0.000030 0.000390 0.000000
0.000031 0.000400 0.000000
0.000031 0.000411 0.000000
0.000031 0.000420 0.000000
0.000032 0.000430 0.000000
0.000031 0.000440 0.000000
0.000031 0.000450 0.000000
0.000031 0.000459 0.000000
0.000036 0.000473 0.000000
0.000029 0.000478 0.000000
0.000033 0.000488 0.000000
0.000032 0.000497 0.000000
0.000063 0.000500 0.000000
0.000847 0.000965 0.000000
0.000864 0.000957 0.000000
0.000891 0.000961 0.000000
0.000901 0.000954 0.000000
0.000906 0.000966 0.000000
0.000911 0.000959 0.000000
0.000922 0.000957 0.000000
0.000929 0.000956 0.000000
0.000952 0.000949 0.000000
0.000040 0.000300 0.000000
0.000040 0.000310 0.000000
0.000040 0.000320 0.000000
0.000040 0.000329 0.000000
0.000040 0.000341 0.000000
0.000041 0.000351 0.000000
0.000041 0.000359 0.000000
0.000040 0.000370 0.000000
0.000041 0.000380 0.000000
0.000040 0.000390 0.000000
0.000042 0.000399 0.000000
0.000041 0.000410 0.000000
0.000042 0.000419 0.000000
0.000040 0.000431 0.000000
0.000042 0.000439 0.000000
0.000043 0.000450 0.000000
0.000042 0.000460 0.000000
0.000037 0.000469 0.000000
0.000045 0.000477 0.000000
0.000043 0.000496 0.000000
0.000040 0.000498 0.000000
0.000653 0.000766 0.000000
0.000856 0.000957 0.000000
0.000874 0.000957 0.000000
0.000882 0.000952 0.000000
0.000890 0.000959 0.000000
0.000911 0.000950 0.000000
0.000933 0.000946 0.000000
0.000932 0.000937 0.000000
0.000942 0.000950 0.000000
0.000950 0.000940 0.000000
0.000050 0.000300 0.000000
0.000050 0.000310 0.000000
0.000050 0.000319 0.000000
0.000050 0.000331 0.000000
0.000051 0.000339 0.000000
0.000050 0.000349 0.000000
0.000050 0.000361 0.000000
0.000052 0.000371 0.000000
0.000051 0.000379 0.000000
0.000051 0.000390 0.000000
0.000051 0.000400 0.000000
0.000050 0.000411 0.000000
0.000052 0.000420 0.000000
0.000051 0.000430 0.000000
0.000053 0.000440 0.000000
0.000048 0.000450 0.000000
0.000054 0.000458 0.000000
0.000053 0.000470 0.000000
0.000056 0.000482 0.000000
0.000049 0.000488 0.000000
0.000050 0.000498 0.000000
0.000844 0.000971 0.000000
0.000802 0.000954 0.000000
0.000870 0.000952 0.000000
0.000885 0.000941 0.000000
0.000899 0.000944 0.000000
0.000916 0.000943 0.000000
0.000907 0.000938 0.000000
0.000924 0.000945 0.000000
0.000940 0.000938 0.000000
0.000947 0.000929 0.000000
0.000060 0.000300 0.000000
0.000060 0.000310 0.000000
0.000059 0.000320 0.000000
0.000061 0.000330 0.000000
0.000060 0.000340 0.000000
0.000060 0.000351 0.000000
0.000061 0.000358 0.000000
0.000060 0.000368 0.000000
0.000061 0.000380 0.000000
0.000060 0.000390 0.000000
0.000062 0.000400 0.000000
0.000060 0.000409 0.000000
0.000063 0.000418 0.000000
0.000058 0.000431 0.000000
0.000065 0.000439 0.000000
0.000061 0.000450 0.000000
0.000065 0.000460 0.000000
0.000055 0.000472 0.000000
0.000065 0.000475 0.000000
0.000068 0.000486 0.000000
0.000058 0.000496 0.000000
0.000834 0.000969 0.000000
0.000847 0.000955 0.000000
0.000864 0.000939 0.000000
0.000877 0.000941 0.000000
0.000893 0.000933 0.000000
0.000899 0.000927 0.000000
0.000928 0.000927 0.000000
0.000918 0.000934 0.000000
0.000937 0.000927 0.000000
0.000946 0.000920 0.000000
0.000070 0.000300 0.000000
0.000070 0.000310 0.000000
0.000071 0.000320 0.000000
0.000070 0.000330 0.000000
0.000071 0.000340 0.000000
0.000070 0.000350 0.000000
0.000073 0.000359 0.000000
0.000069 0.000374 0.000000
0.000081 0.000376 0.000000
0.000069 0.000390 0.000000
0.000073 0.000400 0.000000
0.000069 0.000412 0.000000
0.000074 0.000421 0.000000
0.000069 0.000430 0.000000
0.000075 0.000439 0.000000
0.000067 0.000451 0.000000
0.000077 0.000459 0.000000
0.000073 0.000470 0.000000
0.000076 0.000485 0.000000
0.000068 0.000495 0.000000
0.000076 0.000496 0.000000
0.000647 0.000743 0.000000
0.000835 0.000956 0.000000
0.000857 0.000946 0.000000
0.000877 0.000923 0.000000
0.000894 0.000943 0.000000
0.000909 0.000926 0.000000
0.000919 0.000926 0.000000
0.000914 0.000916 0.000000
0.000934 0.000917 0.000000
0.000943 0.000910 0.000000
0.000080 0.000300 0.000000
0.000080 0.000310 0.000000
0.000080 0.000320 0.000000
0.000079 0.000330 0.000000
0.000082 0.000340 0.000000
0.000080 0.000350 0.000000
0.000082 0.000363 0.000000
0.000073 0.000369 0.000000
0.000076 0.000383 0.000000
0.000080 0.000392 0.000000
0.000089 0.000396 0.000000
0.000079 0.000409 0.000000
0.000085 0.000417 0.000000
0.000078 0.000430 0.000000
0.000087 0.000445 0.000000
0.000077 0.000448 0.000000
0.000086 0.000463 0.000000
0.000074 0.000470 0.000000
0.000087 0.000473 0.000000
0.000085 0.000482 0.000000
0.000084 0.000495 0.000000
0.000824 0.000966 0.000000
0.000796 0.000959 0.000000
0.000862 0.000927 0.000000
0.000873 0.000937 0.000000
0.000887 0.000926 0.000000
0.000893 0.000917 0.000000
0.000903 0.000917 0.000000
0.000924 0.000914 0.000000
0.000932 0.000908 0.000000
0.000940 0.000900 0.000000
0.000090 0.000300 0.000000
0.000090 0.000310 0.000000
0.000090 0.000320 0.000000
0.000090 0.000330 0.000000
0.000091 0.000339 0.000000
0.000089 0.000350 0.000000
0.000091 0.000359 0.000000
0.000090 0.000369 0.000000
0.000092 0.000380 0.000000
0.000090 0.000387 0.000000
0.000085 0.000405 0.000000
0.000093 0.000410 0.000000
0.000088 0.000426 0.000000
0.000096 0.000425 0.000000
0.000089 0.000435 0.000000
0.000097 0.000456 0.000000
0.000087 0.000453 0.000000
0.000097 0.000471 0.000000
0.000106 0.000480 0.000000
0.000089 0.000494 0.000000
0.000094 0.000495 0.000000
0.000659 0.000783 0.000000
0.000830 0.000950 0.000000
0.000818 0.000956 0.000000
0.000848 0.000946 0.000000
0.000873 0.000915 0.000000
0.000898 0.000908 0.000000
0.000913 0.000908 0.000000
0.000919 0.000903 0.000000
0.000929 0.000899 0.000000
0.000937 0.000891 0.000000
0.000100 0.000300 0.000000
0.000100 0.000310 0.000000
0.000100 0.000320 0.000000
0.000100 0.000330 0.000000
0.000100 0.000341 0.000000
0.000101 0.000350 0.000000
0.000100 0.000361 0.000000
0.000100 0.000371 0.000000
0.000101 0.000380 0.000000
0.000100 0.000391 0.000000
0.000100 0.000400 0.000000
0.000103 0.000406 0.000000
0.000100 0.000418 0.000000
0.000100 0.000436 0.000000
0.000110 0.000443 0.000000
0.000097 0.000445 0.000000
0.000108 0.000460 0.000000
0.000098 0.000467 0.000000
0.000095 0.000481 0.000000
0.000106 0.000491 0.000000
0.000101 0.000494 0.000000
0.000758 0.000933 0.000000
0.000766 0.000939 0.000000
0.000790 0.000955 0.000000
0.000874 0.000925 0.000000
0.000888 0.000913 0.000000
0.000889 0.000904 0.000000
0.000909 0.000899 0.000000
0.000901 0.000895 0.000000
0.000924 0.000892 0.000000
0.000933 0.000882 0.000000
0.000110 0.000300 0.000000
0.000110 0.000310 0.000000
0.000110 0.000320 0.000000
0.000110 0.000329 0.000000
0.000111 0.000340 0.000000
0.000110 0.000350 0.000000
0.000110 0.000359 0.000000
0.000112 0.000368 0.000000
0.000110 0.000379 0.000000
0.000111 0.000389 0.000000
0.000112 0.000399 0.000000
0.000110 0.000414 0.000000
0.000116 0.000422 0.000000
0.000107 0.000427 0.000000
0.000111 0.000433 0.000000
0.000106 0.000449 0.000000
0.000115 0.000461 0.000000
0.000111 0.000470 0.000000
0.000116 0.000480 0.000000
0.000111 0.000493 0.000000
0.000119 0.000492 0.000000
0.000709 0.000883 0.000000
0.000666 0.000804 0.000000
0.000824 0.000945 0.000000
0.000847 0.000934 0.000000
0.000837 0.000931 0.000000
[...]
POINT_DATA 6231
SCALARS density float 1
LOOKUP_TABLE default
4413.738568
4425.028965
4423.607024
4425.393735
4423.853184
4423.652552
4422.901010
4423.829932
4428.915861
4429.256536
4426.545158
4430.823530
4428.585802
4430.199193
4430.890451
4439.613318
4423.580176
4432.543059
4412.657409
4424.275128
4411.180390
4422.295076
4426.738134
4431.286069
4441.129629
4420.164536
4397.043890
4429.801014
4450.434150
4452.848166
4417.568761
4417.102721
4423.442252
4427.223032
4425.488695
4421.027742
4430.461038
4429.647726
4432.853637
4428.191569
4429.745092
4425.334190
4433.393046
4425.635729
4436.212241
4416.712740
4427.412469
4410.629365
4442.667010
4462.086517
4460.220908
4416.036713
4410.032267
4415.227545
4436.127051
4507.543514
4391.292538
4399.356149
4426.202551
4401.336882
4455.848864
4442.129120
4418.995335
4429.785743
4426.545775
4422.995331
4435.313638
4427.359287
4416.679155
4430.989237
4414.086328
4433.997295
4426.805460
4431.517839
4419.492029
4438.846966
4416.570365
4474.700429
4399.457213
4453.783813
4351.527877
4450.592723
4421.081005
4420.074588
4427.892695
4412.277899
4505.343818
4327.775090
4367.388798
4415.982736
4420.615604
4423.970400
4399.355238
4428.589208
4428.031388
4424.014164
4432.734820
4429.939999
4427.300901
4434.012694
4438.103683
4428.369338
4439.806800
4407.865767
4441.114518
4420.834114
4443.836970
4403.808192
4429.842772
4394.783387
4456.333237
4369.707109
4553.028053
4372.131716
4430.069005
4455.899684
4438.177557
4483.035312
4343.386837
4490.818936
4466.135613
4409.647121
4477.679541
4436.899564
4424.994451
4426.887910
4433.376029
4436.344379
4421.942040
4439.764819
4433.795803
4421.528836
4422.488112
4426.336765
4420.167385
4448.413344
4404.336975
4443.648045
4420.282118
4450.464087
4390.678886
4506.316030
4310.100465
4419.113370
4384.221102
4436.835738
4415.010400
4432.213450
4417.526613
4480.966149
4423.235414
4407.218384
4485.345780
4442.206245
4413.496625
4425.692017
4439.691823
4423.464523
4427.518330
4440.419579
4430.139305
4414.962122
4455.053994
4429.426552
4434.699533
4427.944953
4425.811801
4422.524808
4449.933682
4372.677888
4479.671060
4362.627880
4470.892447
4357.440958
4538.955718
4381.438710
4444.852170
4429.488873
4447.186319
4411.289444
4445.054252
4449.523607
4389.392341
4402.494339
4418.381213
4417.155325
4435.908988
4437.187554
4417.023801
4447.418984
4424.453582
4441.274113
4420.675602
4427.506164
4391.728500
4441.213087
4419.657966
4437.484928
4415.524889
4434.173298
4422.347309
4461.119893
4402.813709
4517.452809
4382.225585
4483.047624
4431.857700
4416.792606
4397.914210
4416.426102
4460.291587
4466.220741
4422.390721
4404.814643
4419.049497
4424.274337
4426.717382
4427.913610
4424.870578
4429.408033
4439.180344
4400.544948
4453.424402
4400.029159
4436.002493
4409.823554
4457.777348
4388.478833
4440.711354
4404.552067
4441.270667
4431.931228
4453.745534
4443.700217
4447.966652
4446.937527
4411.783112
4391.339054
4439.918369
4453.619315
4434.855474
4447.750225
4428.911529
4427.344364
4453.311514
4443.027085
4448.136471
4412.684079
4425.913717
4434.920228
4426.000605
4412.214057
4434.951177
4433.030310
4426.722791
4457.781933
4416.289643
4429.159953
4417.741547
4438.187050
4417.132406
4438.181051
4462.450178
4388.502539
4453.299108
4447.831776
4370.363106
4461.977493
4413.974575
4434.454765
4414.815684
4412.515217
4442.278425
4372.873380
4468.568575
4423.375002
4402.232461
4434.130810
4438.189739
4428.068963
4431.399956
4417.590603
4430.794611
4436.736251
4412.312861
4443.851679
4435.252308
4437.194023
4441.670202
4443.580956
4401.772496
4430.538921
4449.082016
4417.857308
4380.739422
4439.320667
4434.153828
4421.207797
4424.292233
4415.233231
4427.449517
4428.109546
4426.188412
4478.856992
4404.032564
4390.868399
4441.426502
4439.027426
4429.835964
4413.569276
4426.778339
4422.320144
4438.392617
4430.020500
4418.102564
4438.531161
4424.426558
4414.705155
4436.768532
4401.070674
4436.483925
4451.298523
4419.503546
4389.416866
4438.801016
4453.262683
4423.366891
4463.029793
4416.183878
4440.306014
4421.208774
4423.127195
4431.113604
4422.485560
4445.583221
4456.942152
4370.790221
4405.712899
4469.603924
4454.117060
4421.378406
4427.961357
4433.222879
4430.693028
4420.842393
4435.934393
4434.248085
4425.318537
4443.161785
4424.678536
4445.647830
4411.402106
4435.348600
4399.684092
4452.023678
4435.516385
4436.399798
4459.828986
4392.181961
4464.583204
4399.973122
4406.603574
4437.554312
4438.081442
4437.923951
4398.747812
4440.418748
4460.873883
4458.521643
4407.050173
4424.356913
4454.278990
4430.095283
4431.413028
4419.883730
4436.139280
4433.002119
4415.517400
4420.411165
4436.900558
4391.347817
4447.744552
4413.749266
4424.571054
4460.882908
4434.543026
4436.278148
4384.042504
4447.515554
4409.344196
4425.747382
4430.872069
4387.625002
4442.934824
4421.530276
4431.403579
4449.921335
4453.051676
4424.156514
4339.833118
4457.770585
4389.658526
4415.803099
4430.077254
4439.461638
4424.230417
4436.634777
4414.219837
4444.292601
4441.459437
4426.401279
4443.963204
4427.993296
4426.446186
4401.381990
4427.236438
4447.897443
4410.411856
4440.725712
4398.733304
4439.849281
4515.974566
4415.835494
4437.486993
4435.581164
4420.125962
4422.804796
4434.025645
4428.346668
4443.560329
4471.634025
4473.156828
4495.050310
4452.673712
4435.188121
4438.778626
4422.343545
4432.058786
4425.051129
4425.786494
4411.554164
4412.981420
4441.258019
4404.485605
4436.315796
4443.200861
4431.642061
4411.768951
4444.172284
4375.640424
4437.441790
4503.106070
4564.873422
4379.467255
4374.937654
4410.433567
4418.831660
4447.909589
4443.954993
4377.896418
4458.755758
4413.995155
4401.057520
4403.777610
4450.267944
4431.701472
4430.776501
4434.012270
4429.274624
4428.661470
4419.068065
4433.795916
4453.346096
4413.927095
4417.893109
4442.795854
4414.909827
4435.854947
4379.422476
4490.418351
4390.192081
4498.663492
4344.309673
4321.559678
4477.214580
4398.063161
4411.048589
4436.131742
4439.574376
4488.662141
4444.309884
4420.002955
4439.494982
4397.278796
4426.741907
4411.920619
4430.456584
4428.520522
4436.932719
4419.355322
4436.156943
4429.544858
4400.142669
4412.170235
4395.793157
4451.758602
4428.743621
4397.322428
4463.900829
4423.061637
4410.732008
4457.550003
4401.926728
4481.091124
4483.189801
4419.556481
4404.782638
4425.150278
4453.034073
4408.588573
4376.915252
4462.394083
4452.003313
4422.796563
4404.341189
4430.995883
4428.884575
4434.665042
4430.102637
4426.515426
4437.386946
4429.628795
4424.962245
4440.453713
4437.094152
4430.333540
4414.055246
4449.626006
4445.799340
4407.521195
4454.150300
4437.498330
4427.197218
4396.000211
4489.602610
4363.028536
4365.207019
4428.877347
4422.814921
4440.372378
4443.457295
4401.201619
4443.882697
4432.988473
4433.219589
4469.544334
4438.717018
4439.576164
4431.862554
4431.141876
4429.834604
4439.880649
4426.666515
4426.942634
4424.792905
4404.177181
4444.457242
4447.856218
4400.854536
4427.732304
4422.146918
4430.133595
4382.328187
4465.654698
4350.787353
4464.787562
4395.874245
4449.365496
4395.920055
4429.650940
4432.174587
4436.670574
4457.642191
4400.028816
4460.733024
4455.380029
4413.985867
4407.613716
4421.939834
4430.673999
4423.523345
4431.070314
4414.519650
4441.107574
4438.077215
4426.420780
4452.113251
4407.190704
4421.854285
4426.472421
4443.166606
4419.081988
4438.709720
4441.827878
4450.064942
4377.507711
4454.107940
4429.366293
4566.489355
4376.306122
4472.824824
4424.109001
4439.796327
4436.536588
4386.022124
4455.301828
4401.140981
4406.380297
4424.667880
4416.858351
4432.782289
4430.588531
4439.257768
4433.961838
4422.563237
4423.865159
4410.960225
4434.401370
4427.230168
4420.086892
4425.570994
4426.795896
4408.541090
4433.579902
4412.801416
4458.527273
4444.223419
4465.259164
4376.075458
4381.172471
4428.471678
4410.162837
4424.611873
4461.760815
4417.157802
4399.740843
4422.997144
4442.105492
4459.314891
4410.967754
4405.956744
4435.086494
4431.128747
4419.111829
4432.305571
4425.550394
4444.437933
4429.878024
4420.014985
4419.755155
4444.509776
4406.991204
4439.739134
4441.833705
4428.181283
4402.938711
4457.100599
4424.813795
4441.299419
4399.914088
4463.710817
4411.971286
4444.223124
4415.050607
4418.204138
4436.632639
4412.795891
4396.578369
4447.037804
4362.660114
4423.488575
4445.856539
4428.024143
4431.644731
4434.190316
4440.880025
4418.363363
4414.233559
4422.469097
4447.894030
4408.328456
4430.427256
4428.705987
4426.001188
4457.533600
4399.958511
4409.000521
4470.334141
4375.205712
4395.972921
4440.474993
4445.316982
4422.992426
4423.666490
4428.295077
4460.993843
4412.227020
4450.240902
4472.041436
4370.910748
4468.017952
4374.403625
4423.083052
4429.089211
4430.884056
4427.116586
4419.640702
4429.313191
4453.423563
4419.592821
4413.697373
4422.618141
4444.723534
4402.413041
4439.728188
4422.917900
4430.311867
4440.643350
4405.385964
4447.565895
4426.848369
4402.132682
4444.645411
4421.761571
4416.693525
4464.476829
4416.965305
4432.055340
4455.406863
4432.309413
4365.296487
4441.547880
4428.399945
4449.995143
4425.692132
4427.977971
4425.951135
4434.815785
4428.646946
4405.629365
4427.940927
4432.061005
4422.825798
4420.867238
4437.143187
4432.864378
4410.996096
4422.532306
4403.223669
4431.362613
4391.733227
4467.707271
4435.298592
4488.527374
4409.464513
4417.165046
4454.161472
4419.085545
4448.357541
4436.038475
4461.048620
4422.166206
4458.504977
4426.951298
4438.421256
4426.594013
4436.646763
4428.083930
4426.381879
4426.911193
4432.093326
4440.288875
4399.098581
4434.219876
4429.251520
4422.760716
4422.630586
4435.128767
4423.990329
4442.087650
4459.229246
4399.985737
4454.887160
4360.798061
4418.815520
4429.752247
4408.520161
4453.054074
4442.097498
4421.473587
4429.420186
4427.063121
4422.150099
4411.111205
4417.015068
4418.103655
4432.425696
4434.270195
4417.565494
4435.980270
4421.065471
4427.340884
4406.492979
4444.384900
4434.332199
4417.258640
4416.958092
4451.463964
4396.710603
4437.053248
4408.836953
4438.082141
4423.786026
4470.703946
4410.451909
4448.884368
4420.615567
4460.597294
4426.967236
4372.811681
4424.145781
4432.794142
4417.300541
4445.820705
4488.319409
4423.567416
4445.882221
4432.020755
4427.567967
4430.619987
4442.870213
4418.150614
4439.667254
4424.751086
4436.192602
4392.699763
4441.195582
4421.759160
4423.945689
4403.704367
4452.368334
4409.407201
4464.533049
4398.427401
4477.686424
4400.168572
4433.826613
4413.507216
4422.746019
4431.256857
4432.213034
4416.856403
4431.808696
4417.965532
4425.722922
4386.190707
4385.005562
4428.992976
4426.946562
4431.805252
4429.334719
4420.861172
4430.121355
4444.016371
4414.502305
4423.335583
4432.909088
4442.437142
4399.789335
4439.665478
4435.216471
4435.091318
4425.173644
4424.164984
4400.788989
4449.923023
4425.227080
4431.030232
4408.760446
4432.299946
4418.040687
4427.931754
4482.949439
4385.906141
4419.772282
4445.560804
4388.460991
4439.673303
4407.358473
4427.342920
4431.318378
4423.346020
4437.838646
4445.407043
4405.392737
4439.788265
4444.037510
4399.447222
4418.895118
4432.905450
4434.578184
4424.701809
4398.323031
4445.243961
4440.924675
4402.689120
4370.871195
4392.012078
4464.586822
4441.683896
4410.942889
4402.281524
4398.519226
4450.294769
4435.471362
4435.577295
4471.232099
4452.465729
4438.502952
4458.672059
4430.557503
4430.139957
4431.400598
4420.929213
4422.978548
4441.873428
4429.818800
4408.393281
4444.391435
4420.321293
4434.818506
4396.804229
4455.254535
4444.060258
4406.790311
4435.094581
4402.058132
4491.197157
4456.703745
4438.437014
4445.006672
4420.758283
4449.048815
4420.552247
4439.082750
4438.494876
4424.984811
4430.371070
4421.285411
4397.915938
4422.701183
4428.870686
4431.757113
4437.080658
4437.477341
4433.082422
4429.773381
4422.143063
4427.943493
4451.790274
4400.728751
4440.131878
4442.923384
4418.442552
4423.370531
4438.711705
4448.487619
4392.121496
4445.692743
4390.027297
4372.906261
4430.951758
4435.065843
4424.729828
4390.673806
4470.346144
4386.617637
4425.691582
4416.074279
4466.918291
4365.598311
4423.440700
4437.939232
4432.905463
4419.268274
4424.107407
4431.105392
4421.260362
4437.378615
4431.906593
4393.366489
4459.506449
4424.854272
4421.503044
4423.619135
4444.926873
4419.515139
4442.814149
4410.086231
4389.130552
4469.246073
4466.469535
4447.304785
4400.219026
4405.090551
4428.556097
4448.198337
4430.538781
4375.644982
4457.542754
4425.482857
4459.003389
4423.595966
4436.384099
4427.989557
4442.554474
4436.338749
4417.528342
4447.690859
4399.680811
4429.726726
4428.942770
4428.626274
4393.225706
4460.013018
4428.422819
4440.589710
4402.447834
4429.063944
4445.612736
4466.603842
4335.513253
4474.515232
4459.121410
4421.372674
4493.137561
4432.247608
4453.857017
4462.716785
4443.656416
4423.185972
4391.836889
4401.422650
4434.819812
4436.545971
4426.313431
4418.375807
4414.830474
4424.298269
4434.803572
4410.020847
4454.407885
4390.315962
4437.729845
4415.228380
4433.207610
4395.450595
4438.335128
4403.260280
4441.220800
4385.512317
4439.953670
4320.323731
4499.806485
4472.546639
4423.074347
4407.948965
4521.833421
4385.110148
4442.706843
4394.425496
4467.038893
4359.389402
4433.941742
4443.699464
4431.203676
4436.662575
4428.326040
4443.592518
4432.459607
4430.790938
4431.218396
4412.402012
4425.789741
4444.214011
4401.429838
4423.729099
4412.682650
4449.294235
4401.867660
4456.726117
4378.441274
4480.591322
4456.048114
4507.720443
4423.100310
4419.756542
4362.757548
4427.498777
4410.303886
4432.707109
4461.138785
4463.763274
4452.478758
4373.652831
4455.445708
4419.669405
4422.860078
4441.943725
4404.203713
4439.493211
4423.852273
4431.343685
4414.736932
4433.082987
4409.819149
4428.363763
4445.234682
4410.056528
4431.925398
4421.474875
4441.669087
4428.070633
4443.967519
4437.243138
4508.646037
4548.990180
4421.552203
4487.265087
4414.670630
4417.619957
4467.670486
4393.136714
4414.493176
4441.817528
4433.028788
4416.546889
4427.500835
4431.235891
4426.001455
4430.188562
4416.476682
4436.491072
4437.257610
4424.708849
4424.612680
4437.038091
4444.430233
4442.991703
4410.755274
4435.389716
4435.352406
4419.522844
4438.555088
4404.801989
4412.617366
4428.017195
4389.662463
4415.756461
4415.913526
4412.052525
4423.444779
4453.158481
4369.589172
4368.419309
4501.027075
4473.232695
4418.687540
4424.266323
4428.706018
4415.941857
4421.620199
4402.960687
4439.837258
4413.222660
4412.090100
4447.029975
4398.922349
4411.555968
4449.622133
4422.532586
4455.556906
4413.973126
4460.243317
4381.976030
4452.263997
4433.897076
4453.097981
4428.564624
4482.357001
4417.894370
4424.658511
4427.042122
4462.910558
4479.201456
4436.440038
4366.430372
4442.787053
4395.864477
4424.529814
4427.877951
4430.768789
4438.165126
4440.000195
4425.571766
4437.248423
4434.944218
4410.296240
4452.955193
4439.836772
4422.397497
4402.637533
4407.646666
4421.556001
4429.822712
4443.746582
4381.268434
4438.542936
4469.711416
4423.739627
4429.343173
4423.737147
4418.745373
4468.432783
4457.969386
4415.875397
4534.823047
4367.172390
4434.639049
4422.315442
4429.264145
4430.591093
4423.329345
4416.437839
4426.827811
4404.877550
4424.343307
4441.266128
4429.415362
4426.094316
4379.692320
4397.100273
4417.343797
4408.668260
4416.422563
4434.841234
4393.179650
4420.877814
4428.518956
4453.619117
4433.504543
4408.886459
4446.389101
4442.032094
4476.691313
4435.376987
4469.396943
4420.141495
4346.387558
4397.352473
4419.921986
4423.198322
4414.288187
4431.252178
4430.010052
4433.082592
4438.935632
4430.305597
4422.975061
4430.306717
4407.100283
4427.576845
4479.417037
4417.609492
4417.338136
4425.561774
4429.227836
4484.635056
4382.381990
4427.733769
4440.370789
4420.108933
4424.176219
4476.507069
4375.434852
4375.768392
4484.486724
4420.696710
4391.842307
4455.240153
4472.452545
4413.133249
4427.284657
4425.468990
4430.162343
4417.101815
4428.303903
4404.125582
4432.644879
4406.865078
4431.836404
4425.420031
4381.243014
4424.658209
4442.588544
4447.969112
4400.320116
4454.003453
4387.788420
4405.808975
4359.234289
4424.233937
4432.622511
4451.269554
4384.327805
4455.535995
4435.700733
4444.198788
4394.257388
4386.938822
4472.546943
4356.913427
4418.520996
4424.937622
4418.397863
4430.212586
4412.420996
4441.471764
4431.447570
4457.960240
4408.199556
4445.078081
4424.319438
4413.746738
4424.899375
4444.133604
4411.443481
4423.013083
4421.921502
4409.244420
4451.775434
4455.603588
4459.510375
4433.927601
4443.794229
4452.527891
4417.934018
4475.713901
4458.417572
4460.414011
4470.189273
4458.514853
4414.290081
4411.507132
4424.649527
4419.820800
4437.100827
4420.315986
4422.647690
4395.133448
4412.491047
4434.289479
4419.135797
4410.356153
4443.172048
4439.813301
4381.220277
4430.632141
4430.445274
4426.006231
4405.841734
4428.867881
4396.620784
4466.677093
4441.518406
4433.576385
4381.925505
4444.128822
4413.743284
4384.914263
4457.193675
4400.579694
4447.613372
4426.882775
4409.103217
4424.591462
4423.052928
4432.873480
4406.218389
4443.199125
4437.904727
4426.949816
4417.625522
4393.297345
4456.805510
4429.355081
4424.957461
4432.180516
4455.951397
4458.898467
4447.923494
4400.480023
4456.234551
4379.981269
4436.792776
4413.768843
4399.842825
4436.668651
4417.056429
4458.668141
4437.826303
4424.774611
4395.671193
4436.740450
4388.754279
4467.594928
4423.931819
4429.969681
4425.363304
4437.174933
4411.438804
4440.843951
4445.384894
4415.133433
4408.695498
4443.914231
4418.269033
4401.860507
4411.992374
4400.646287
4400.925712
4437.722757
4423.073699
4464.073341
4434.715509
4340.207449
4397.961487
4451.994152
4439.897205
4402.310020
4442.869555
4443.094625
4452.217212
4356.544089
4425.949647
4410.255642
4366.229525
4432.256359
4433.940204
4417.538450
4429.028196
4425.035904
4397.835353
4434.963747
4429.641960
4424.921629
4413.185864
4451.343748
4401.044376
4423.238233
4454.415376
4448.092403
4390.248082
4429.887270
4449.989070
4376.213669
4537.154837
4382.587798
4427.634511
4447.912238
4419.684963
4430.011914
4425.950518
4440.785200
4453.628211
4480.551699
4398.490186
4434.384349
4427.120109
4428.690723
4430.143769
4425.609032
4417.376524
4429.790301
4400.070532
4417.987052
4415.676271
4425.596817
4437.548949
4421.863988
4423.523933
4399.347244
4436.333418
4448.676593
4462.330580
4451.711557
4418.229774
4426.821567
4494.629810
4491.265211
4472.951351
4422.060613
4474.301432
4435.006756
4403.447160
4440.435261
4465.518587
4441.635724
4482.743434
4428.162781
4429.569429
4436.198020
4427.848592
4424.332620
4431.992137
4449.764307
4425.851447
4385.487016
4423.891480
4432.342527
4417.419370
4438.808077
4421.935362
4422.079986
4440.824561
4398.844275
4412.714949
4417.391173
4440.585232
4725.187038
4473.465561
4430.787174
4474.466384
4461.408920
4453.124906
4433.764320
4382.782468
4362.521831
4339.094798
4380.927185
4432.595206
4436.373627
4407.674586
4423.963907
4435.335515
4425.414345
4423.048575
4421.658995
4440.261417
4447.810716
4415.930255
4412.788442
4421.194139
4407.995388
4433.189873
4430.495959
4430.997362
4452.888789
4413.160665
4432.100512
4446.346607
4412.248800
4445.165051
4416.730355
4455.035190
4442.599856
4430.243045
4429.257660
4475.131084
4419.749692
4454.508780
4427.274647
4417.333600
4440.185240
4431.800054
4405.888184
4435.558588
4409.144047
4428.110195
4441.173013
4402.425568
4423.132598
4457.644483
4427.945532
4406.480313
4428.381087
4415.281587
4441.908188
4424.746815
4382.197440
4404.556456
4430.501305
4464.008973
4446.547332
4465.859806
4384.793851
4415.710772
4440.240038
4386.319002
4466.020691
4404.362165
4421.789371
4432.229770
4423.278418
4425.438784
4447.656578
4447.250117
4411.033625
4427.403876
4404.719770
4433.860476
4409.579958
4431.341693
4413.624702
4422.903780
4452.798110
4421.656647
4448.102976
4431.330684
4475.910896
4478.199253
4380.304949
4434.025774
4464.741264
4458.707923
4370.036002
4455.733632
4457.898120
4414.163157
4468.427840
4420.948382
4428.342404
4388.069918
4419.409744
4435.383056
4411.625189
4394.202356
4436.535307
4424.323232
4444.238074
4431.284375
4439.829996
4435.631466
4444.602102
4417.451444
4429.608893
4425.971301
4428.628905
4433.984907
4401.942836
4459.498213