# vtk DataFile Version 2.0
mfree iwf
ASCII

DATASET UNSTRUCTURED_GRID
POINTS 6231 float
0.000000 0.000300 0.000000
0.000000 0.000310 0.000000
0.000000 0.000320 0.000000
0.000000 0.000330 0.000000
0.000000 0.000340 0.000000
0.000000 0.000350 0.000000
0.000001 0.000360 0.000000
0.000001 0.000370 0.000000
0.000001 0.000380 0.000000
0.000001 0.000390 0.000000
0.000001 0.000400 0.000000
0.000001 0.000410 0.000000
0.000001 0.000420 0.000000
0.000001 0.000430 0.000000
0.000001 0.000440 0.000000
0.000002 0.000450 0.000000
0.000002 0.000460 0.000000
0.000002 0.000471 0.000000
0.000002 0.000480 0.000000
0.000002 0.000492 0.000000
0.000006 0.000501 0.000000
0.000529 0.000811 0.000000
0.000584 0.000870 0.000000
0.000542 0.000825 0.000000
0.000595 0.000879 0.000000
0.000614 0.000891 0.000000
0.000659 0.000911 0.000000
0.000667 0.000912 0.000000
0.000680 0.000911 0.000000
0.000693 0.000913 0.000000
0.000726 0.000922 0.000000
0.000010 0.000300 0.000000
0.000010 0.000310 0.000000
0.000010 0.000320 0.000000
0.000010 0.000330 0.000000
0.000010 0.000340 0.000000
0.000010 0.000350 0.000000
0.000010 0.000360 0.000000
0.000011 0.000370 0.000000
0.000011 0.000380 0.000000
0.000011 0.000390 0.000000
0.000011 0.000400 0.000000
0.000011 0.000410 0.000000
0.000011 0.000420 0.000000
0.000011 0.000430 0.000000
0.000012 0.000440 0.000000
0.000012 0.000451 0.000000
0.000012 0.000460 0.000000
0.000012 0.000472 0.000000
0.000013 0.000478 0.000000
0.000010 0.000492 0.000000
0.000013 0.000498 0.000000
0.000633 0.000895 0.000000
0.000646 0.000900 0.000000
0.000654 0.000903 0.000000
0.000661 0.000903 0.000000
0.000679 0.000903 0.000000
0.000689 0.000905 0.000000
0.000704 0.000906 0.000000
0.000715 0.000910 0.000000
0.000720 0.000911 0.000000
0.000722 0.000918 0.000000
0.000020 0.000300 0.000000
0.000020 0.000310 0.000000
0.000020 0.000320 0.000000
0.000020 0.000330 0.000000
0.000020 0.000340 0.000000
0.000020 0.000351 0.000000
0.000020 0.000360 0.000000
0.000021 0.000370 0.000000
0.000020 0.000380 0.000000
0.000021 0.000390 0.000000
0.000021 0.000400 0.000000
0.000022 0.000410 0.000000
0.000020 0.000420 0.000000
0.000022 0.000431 0.000000
0.000020 0.000440 0.000000
0.000024 0.000451 0.000000
0.000021 0.000460 0.000000
0.000022 0.000470 0.000000
0.000021 0.000481 0.000000
0.000024 0.000494 0.000000
0.000020 0.000497 0.000000
0.000606 0.000874 0.000000
0.000630 0.000889 0.000000
0.000640 0.000894 0.000000
0.000646 0.000893 0.000000
0.000657 0.000890 0.000000
0.000671 0.000898 0.000000
0.000697 0.000900 0.000000
0.000711 0.000904 0.000000
0.000722 0.000899 0.000000
0.000729 0.000899 0.000000
0.000030 0.000300 0.000000
0.000030 0.000310 0.000000
0.000030 0.000320 0.000000
0.000030 0.000330 0.000000
0.000030 0.000340 0.000000
0.000030 0.000349 0.000000
0.000031 0.000359 0.000000
0.000030 0.000370 0.000000
0.000031 0.000380 0.000000
0.000031 0.000390 0.000000
0.000031 0.000400 0.000000
0.000031 0.000411 0.000000
0.000031 0.000420 0.000000
0.000032 0.000430 0.000000
0.000032 0.000440 0.000000
0.000030 0.000450 0.000000
0.000032 0.000459 0.000000
0.000036 0.000473 0.000000
0.000030 0.000478 0.000000
0.000033 0.000488 0.000000
0.000032 0.000497 0.000000
0.000063 0.000500 0.000000
0.000626 0.000882 0.000000
0.000643 0.000879 0.000000
0.000670 0.000889 0.000000
0.000679 0.000885 0.000000
0.000682 0.000896 0.000000
0.000690 0.000891 0.000000
0.000700 0.000891 0.000000
0.000708 0.000893 0.000000
0.000731 0.000891 0.000000
0.000040 0.000300 0.000000
0.000040 0.000310 0.000000
0.000040 0.000320 0.000000
0.000040 0.000329 0.000000
0.000040 0.000340 0.000000
0.000040 0.000351 0.000000
0.000040 0.000360 0.000000
0.000041 0.000370 0.000000
0.000041 0.000380 0.000000
0.000040 0.000390 0.000000
0.000042 0.000399 0.000000
0.000041 0.000410 0.000000
0.000042 0.000420 0.000000
0.000040 0.000431 0.000000
0.000043 0.000439 0.000000
0.000043 0.000450 0.000000
0.000043 0.000460 0.000000
0.000037 0.000469 0.000000
0.000045 0.000478 0.000000
0.000043 0.000496 0.000000
0.000040 0.000498 0.000000
0.000486 0.000641 0.000000
0.000636 0.000876 0.000000
0.000653 0.000880 0.000000
0.000662 0.000878 0.000000
0.000667 0.000884 0.000000
0.000689 0.000880 0.000000
0.000712 0.000884 0.000000
0.000715 0.000875 0.000000
0.000721 0.000889 0.000000
0.000731 0.000882 0.000000
0.000050 0.000300 0.000000
0.000050 0.000310 0.000000
0.000050 0.000319 0.000000
0.000050 0.000331 0.000000
0.000051 0.000339 0.000000
0.000050 0.000349 0.000000
0.000051 0.000359 0.000000
0.000050 0.000370 0.000000
0.000052 0.000380 0.000000
0.000050 0.000390 0.000000
0.000053 0.000400 0.000000
0.000048 0.000411 0.000000
0.000053 0.000420 0.000000
0.000051 0.000430 0.000000
0.000054 0.000440 0.000000
0.000047 0.000451 0.000000
0.000055 0.000458 0.000000
0.000053 0.000470 0.000000
0.000056 0.000483 0.000000
0.000049 0.000488 0.000000
0.000050 0.000498 0.000000
0.000620 0.000886 0.000000
0.000583 0.000860 0.000000
0.000650 0.000872 0.000000
0.000668 0.000868 0.000000
0.000681 0.000874 0.000000
0.000697 0.000880 0.000000
0.000691 0.000869 0.000000
0.000705 0.000878 0.000000
0.000722 0.000877 0.000000
0.000731 0.000870 0.000000
0.000060 0.000300 0.000000
0.000060 0.000310 0.000000
0.000060 0.000321 0.000000
0.000060 0.000330 0.000000
0.000061 0.000340 0.000000
0.000059 0.000351 0.000000
0.000062 0.000360 0.000000
0.000060 0.000370 0.000000
0.000063 0.000381 0.000000
0.000058 0.000390 0.000000
0.000063 0.000400 0.000000
0.000060 0.000409 0.000000
0.000064 0.000419 0.000000
0.000057 0.000430 0.000000
0.000066 0.000440 0.000000
0.000060 0.000449 0.000000
0.000066 0.000460 0.000000
0.000055 0.000472 0.000000
0.000064 0.000475 0.000000
0.000068 0.000486 0.000000
0.000058 0.000496 0.000000
0.000611 0.000882 0.000000
0.000627 0.000873 0.000000
0.000647 0.000861 0.000000
0.000658 0.000866 0.000000
0.000676 0.000861 0.000000
0.000684 0.000858 0.000000
0.000713 0.000863 0.000000
0.000702 0.000866 0.000000
0.000721 0.000865 0.000000
0.000731 0.000861 0.000000
0.000070 0.000300 0.000000
0.000070 0.000310 0.000000
0.000070 0.000319 0.000000
0.000070 0.000330 0.000000
0.000071 0.000339 0.000000
0.000069 0.000350 0.000000
0.000073 0.000357 0.000000
0.000067 0.000371 0.000000
0.000074 0.000377 0.000000
0.000069 0.000390 0.000000
0.000073 0.000400 0.000000
0.000068 0.000411 0.000000
0.000074 0.000421 0.000000
0.000068 0.000430 0.000000
0.000074 0.000439 0.000000
0.000066 0.000452 0.000000
0.000077 0.000459 0.000000
0.000073 0.000470 0.000000
0.000076 0.000486 0.000000
0.000068 0.000496 0.000000
0.000076 0.000496 0.000000
0.000486 0.000620 0.000000
0.000616 0.000870 0.000000
0.000639 0.000867 0.000000
0.000664 0.000852 0.000000
0.000677 0.000869 0.000000
0.000694 0.000857 0.000000
0.000703 0.000862 0.000000
0.000703 0.000850 0.000000
0.000720 0.000855 0.000000
0.000731 0.000851 0.000000
0.000080 0.000300 0.000000
0.000080 0.000310 0.000000
0.000080 0.000321 0.000000
0.000080 0.000330 0.000000
0.000080 0.000341 0.000000
0.000081 0.000351 0.000000
0.000078 0.000363 0.000000
0.000082 0.000370 0.000000
0.000081 0.000384 0.000000
0.000078 0.000391 0.000000
0.000087 0.000397 0.000000
0.000080 0.000408 0.000000
0.000084 0.000417 0.000000
0.000079 0.000430 0.000000
0.000087 0.000445 0.000000
0.000077 0.000447 0.000000
0.000086 0.000463 0.000000
0.000074 0.000470 0.000000
0.000087 0.000473 0.000000
0.000085 0.000482 0.000000
0.000084 0.000495 0.000000
0.000602 0.000877 0.000000
0.000576 0.000863 0.000000
0.000650 0.000852 0.000000
0.000659 0.000859 0.000000
0.000673 0.000851 0.000000
0.000683 0.000847 0.000000
0.000691 0.000847 0.000000
0.000711 0.000849 0.000000
0.000721 0.000846 0.000000
0.000730 0.000841 0.000000
0.000090 0.000300 0.000000
0.000090 0.000310 0.000000
0.000090 0.000320 0.000000
0.000090 0.000329 0.000000
0.000090 0.000339 0.000000
0.000091 0.000349 0.000000
0.000090 0.000359 0.000000
0.000091 0.000368 0.000000
0.000089 0.000378 0.000000
0.000092 0.000388 0.000000
0.000086 0.000407 0.000000
0.000094 0.000407 0.000000
0.000089 0.000425 0.000000
0.000096 0.000426 0.000000
0.000088 0.000436 0.000000
0.000097 0.000455 0.000000
0.000087 0.000454 0.000000
0.000097 0.000471 0.000000
0.000106 0.000480 0.000000
0.000089 0.000495 0.000000
0.000094 0.000495 0.000000
0.000487 0.000659 0.000000
0.000612 0.000864 0.000000
0.000599 0.000866 0.000000
0.000630 0.000863 0.000000
0.000665 0.000842 0.000000
0.000687 0.000839 0.000000
0.000701 0.000842 0.000000
0.000709 0.000838 0.000000
0.000720 0.000836 0.000000
0.000729 0.000831 0.000000
0.000100 0.000300 0.000000
0.000100 0.000310 0.000000
0.000100 0.000320 0.000000
0.000100 0.000331 0.000000
0.000101 0.000340 0.000000
0.000099 0.000351 0.000000
0.000102 0.000361 0.000000
0.000099 0.000372 0.000000
0.000102 0.000381 0.000000
0.000100 0.000392 0.000000
0.000101 0.000399 0.000000
0.000103 0.000410 0.000000
0.000100 0.000418 0.000000
0.000100 0.000435 0.000000
0.000110 0.000444 0.000000
0.000097 0.000445 0.000000
0.000107 0.000460 0.000000
0.000098 0.000467 0.000000
0.000095 0.000481 0.000000
0.000106 0.000491 0.000000
0.000101 0.000494 0.000000
0.000545 0.000829 0.000000
0.000552 0.000837 0.000000
0.000572 0.000858 0.000000
0.000657 0.000845 0.000000
0.000674 0.000839 0.000000
0.000680 0.000831 0.000000
0.000701 0.000832 0.000000
0.000693 0.000826 0.000000
0.000717 0.000829 0.000000
0.000728 0.000822 0.000000
0.000110 0.000300 0.000000
0.000110 0.000310 0.000000
0.000110 0.000320 0.000000
0.000110 0.000329 0.000000
0.000110 0.000339 0.000000
0.000111 0.000350 0.000000
0.000110 0.000359 0.000000
0.000111 0.000369 0.000000
0.000110 0.000378 0.000000
0.000110 0.000389 0.000000
0.000112 0.000400 0.000000
0.000111 0.000412 0.000000
0.000115 0.000423 0.000000
0.000107 0.000427 0.000000
0.000112 0.000434 0.000000
0.000106 0.000449 0.000000
0.000115 0.000461 0.000000
0.000111 0.000471 0.000000
0.000116 0.000480 0.000000
0.000111 0.000493 0.000000
0.000119 0.000492 0.000000
0.000510 0.000768 0.000000
0.000489 0.000681 0.000000
0.000607 0.000857 0.000000
0.000632 0.000853 0.000000
0.000623 0.000847 0.000000
[...]
POINT_DATA 6231
SCALARS density float 1
LOOKUP_TABLE default
4407.759137
4424.679971
4422.005814
4423.169404
4426.682911
4425.935497
4421.934389
4424.223824
4429.364532
4428.483858
4426.756901
4431.555384
4427.546626
4429.844133
4431.226408
4440.673388
4423.622140
4431.383118
4412.659211
4424.033626
4411.252926
4425.322405
4424.435731
4433.625587
4440.473398
4418.164799
4402.631802
4436.400822
4449.672759
4452.211427
4422.781361
4412.477347
4423.669630
4424.516593
4423.466391
4423.040732
4424.994864
4426.722726
4426.521616
4425.473922
4429.824447
4422.782708
4430.932159
4425.231886
4437.483165
4417.329663
4426.030321
4410.022084
4445.727430
4460.982220
4460.284289
4416.430784
4406.305432
4403.542214
4427.712911
4501.566993
4393.733870
4404.290139
4425.114419
4415.188838
4464.649065
4453.558224
4417.324890
4428.010255
4424.075342
4426.634942
4426.147637
4424.039111
4426.371991
4437.715104
4417.792640
4431.572232
4428.818187
4433.298273
4420.064685
4438.146849
4413.183321
4479.220760
4398.977770
4452.695296
4351.831627
4449.209847
4420.666329
4416.636294
4431.949898
4410.020374
4528.284123
4336.167772
4361.637025
4427.973199
4409.509398
4409.628358
4400.379580
4424.203265
4427.823406
4422.783448
4429.056839
4431.051557
4437.017599
4422.032853
4420.372695
4426.592306
4436.676164
4411.610525
4437.451075
4414.958453
4448.632346
4402.460992
4432.803214
4387.908342
4459.438343
4367.768824
4557.541457
4370.213123
4431.025247
4455.045818
4422.435968
4491.457540
4351.467418
4491.303402
4456.383443
4390.480904
4500.003262
4451.149943
4428.746711
4427.552989
4432.658655
4437.482182
4419.900718
4425.085790
4435.059807
4438.968931
4424.431538
4432.072071
4411.570872
4454.182336
4403.579991
4444.854131
4413.731207
4448.723819
4387.827061
4509.421582
4307.632635
4419.770389
4383.790645
4439.213232
4421.842343
4403.176364
4440.994718
4470.329199
4445.363880
4393.524968
4490.647927
4425.221862
4421.985710
4426.769818
4427.510441
4424.961921
4425.820876
4437.210605
4444.909923
4409.757149
4433.673169
4408.085838
4444.352207
4424.103123
4431.273177
4410.025007
4456.676315
4367.370671
4481.021545
4360.859470
4475.889045
4360.919101
4535.385202
4383.115154
4444.631984
4425.943560
4454.864181
4398.552222
4428.053958
4435.431412
4391.250577
4385.199413
4409.792815
4414.813573
4426.253069
4441.084636
4428.175117
4439.621757
4417.594385
4435.533600
4417.048538
4450.939336
4419.388786
4440.494015
4415.452746
4445.071095
4424.522821
4431.403322
4423.495271
4467.796990
4403.090143
4519.410953
4374.826763
4481.500527
4432.182681
4418.474349
4391.089843
4412.535721
4464.495867
4466.718229
4427.218197
4399.760941
4434.032650
4424.736429
4426.781693
4429.558475
4430.578066
4409.260608
4440.680219
4424.309745
4446.241101
4425.827687
4434.583520
4407.790034
4445.734828
4392.757498
4423.251907
4413.466197
4437.814140
4433.254975
4452.810305
4438.488790
4455.768270
4447.736910
4412.202487
4388.546128
4566.212258
4461.404277
4443.852340
4458.078895
4436.772051
4418.707049
4467.204231
4432.994694
4451.744924
4413.601192
4424.540427
4431.183589
4430.838420
4424.685354
4415.083067
4425.045445
4417.447436
4441.330505
4449.624095
4437.202912
4403.319521
4445.498936
4401.584656
4444.794285
4471.438068
4392.685331
4455.881140
4453.026216
4357.127070
4466.592116
4412.778936
4431.642506
4412.839613
4425.418461
4436.163040
4386.345255
4451.455299
4433.056225
4406.426217
4436.627669
4434.683818
4426.157793
4426.876135
4432.362786
4420.693156
4432.694134
4444.482935
4411.720003
4448.974602
4407.173798
4429.539353
4460.364061
4403.731793
4428.251996
4469.230371
4415.477245
4379.183722
4438.892818
4437.343207
4428.292574
4425.884632
4416.137575
4421.740847
4435.913241
4426.076617
4476.333482
4420.854454
4383.078237
4446.764398
4448.722753
4425.800838
4418.934428
4429.859516
4429.548472
4426.174157
4437.474282
4417.941573
4419.169652
4428.646888
4408.226120
4437.783111
4442.049851
4434.154783
4438.937326
4423.277868
4381.981841
4447.123422
4448.213282
4416.546206
4468.962123
4412.519382
4437.222744
4419.380132
4424.654165
4427.630956
4422.026463
4414.752561
4471.892163
4387.551850
4391.377543
4471.477925
4442.679710
4423.037118
4428.016704
4437.421823
4429.207761
4429.960856
4429.682782
4424.895704
4445.743681
4426.365555
4445.176592
4409.733008
4412.311152
4455.040380
4388.641507
4441.542393
4434.859640
4440.510675
4468.363484
4385.407752
4463.796271
4399.988382
4410.510354
4428.875306
4435.798548
4429.890510
4391.610328
4439.265213
4463.384422
4465.218873
4416.728775
4424.116238
4450.561659
4432.630236
4428.888414
4422.953579
4424.311156
4434.077765
4425.303803
4405.213898
4440.252728
4405.981141
4452.638070
4445.795859
4410.113622
4440.074356
4434.786795
4425.538982
4368.081612
4434.349796
4391.405518
4423.928893
4435.528720
4392.127667
4442.157112
4413.359334
4424.965885
4450.619943
4456.312361
4393.852306
4334.099995
4461.261927
4388.608118
4414.389847
4436.751536
4433.476007
4433.722454
4442.694528
4415.498676
4432.161538
4430.175992
4435.019989
4426.516100
4409.860377
4396.474864
4423.472960
4454.261066
4411.227888
4416.824653
4449.487920
4407.913194
4451.076216
4494.260711
4419.175614
4435.501879
4433.212331
4406.003135
4419.707702
4427.312816
4434.035445
4420.950565
4480.669648
4478.009332
4480.874713
4450.649370
4434.358191
4434.900702
4428.290614
4416.441409
4435.651992
4428.716067
4422.968076
4408.338592
4448.891527
4423.333176
4445.838256
4439.290862
4410.878348
4430.865399
4438.058550
4379.911152
4416.292534
4506.389309
4565.929663
4388.060860
4379.392329
4418.666740
4414.689256
4468.105389
4460.646314
4386.221311
4448.031744
4409.109088
4407.664887
4405.506532
4448.673606
4434.963418
4433.995312
4437.412798
4435.434825
4431.496734
4410.152711
4433.554417
4448.540009
4411.447902
4410.096954
4436.057822
4415.770388
4446.734021
4424.119159
4439.634617
4433.438660
4484.263402
4362.903253
4329.617079
4488.849079
4394.979927
4409.998707
4435.504235
4416.487544
4487.157430
4456.534550
4423.476450
4423.940410
4398.584735
4420.923838
4411.070902
4435.216921
4426.109252
4428.637060
4418.595253
4440.545042
4430.440720
4420.354660
4416.207808
4445.873031
4442.256834
4422.755699
4418.758378
4439.261932
4399.650812
4431.516821
4435.789364
4395.159905
4485.593814
4474.530786
4420.931497
4406.455943
4424.696170
4460.848783
4429.257100
4396.719720
4442.906225
4440.762785
4420.087923
4400.961874
4437.955346
4427.770672
4433.975682
4429.182740
4443.395859
4434.896722
4429.952058
4423.846874
4438.026235
4432.408442
4417.584025
4407.526032
4442.387867
4424.976064
4414.727453
4457.546731
4414.166351
4424.830176
4390.873923
4483.793896
4350.918625
4363.854859
4422.122897
4430.833568
4432.974905
4403.151031
4403.345503
4449.799260
4422.422202
4432.656755
4468.053842
4421.226234
4432.886708
4436.493221
4427.719831
4420.648647
4431.173247
4439.297048
4431.253862
4425.045557
4421.170089
4439.841949
4443.420227
4421.418734
4429.965233
4428.865209
4424.979252
4402.761391
4464.458215
4354.218653
4465.396159
4405.443019
4442.978192
4388.610318
4427.111804
4428.977170
4434.775276
4465.319852
4399.874956
4463.754719
4459.741650
4411.025723
4430.326106
4423.513268
4430.666872
4421.488347
4442.107132
4437.032124
4426.341499
4428.689944
4432.743282
4436.414511
4402.414141
4423.968762
4417.837526
4439.297240
4416.065118
4430.416229
4426.585370
4426.757691
4390.799069
4462.794459
4426.843119
4581.965694
4372.404592
4475.112692
4443.480584
4417.880402
4440.406495
4416.012425
4427.293766
4403.531851
4422.205760
4446.339795
4402.308066
4430.256850
4433.279604
4426.722641
4414.274445
4436.465995
4432.988795
4419.752284
4428.871119
4435.862763
4432.562225
4426.334327
4431.474058
4418.133196
4422.165322
4412.682563
4469.542599
4455.422993
4470.778574
4362.591219
4378.173940
4556.755143
4408.789220
4426.639770
4445.245085
4436.972164
4354.136355
4424.421573
4434.902339
4460.651964
4403.635750
4389.243741
4430.439174
4434.737731
4427.198020
4436.901242
4439.502550
4419.413455
4426.573044
4422.854351
4419.987685
4420.144629
4421.151173
4403.232603
4449.292167
4441.105226
4409.258211
4422.236772
4416.207924
4441.104390
4399.967861
4467.229411
4409.681627
4441.909064
4408.798130
4414.125657
4438.588797
4430.226658
4416.533199
4458.849407
4344.877146
4397.446713
4452.610233
4430.246433
4427.985415
4427.920456
4431.242397
4404.540023
4439.893248
4421.513413
4445.228866
4421.276520
4433.898257
4432.944312
4409.591252
4437.680014
4419.102015
4418.611391
4464.109606
4401.396100
4385.130682
4444.996059
4450.252640
4422.663720
4425.611156
4442.661240
4442.807348
4409.034652
4438.631589
4507.232015
4372.999068
4507.995837
4349.837594
4443.927083
4431.268800
4431.243059
4431.259142
4430.289062
4435.238832
4446.559227
4398.236985
4415.939646
4406.963656
4439.028180
4396.482108
4445.535115
4409.446372
4447.791791
4443.006396
4383.927981
4453.068823
4445.072282
4389.852369
4435.980913
4425.038083
4425.205414
4465.619046
4402.751187
4443.264139
4464.017624
4424.809783
4366.896696
4461.039459
4443.887561
4446.338942
4428.577632
4426.894004
4428.078674
4418.962072
4417.980890
4413.897909
4450.251039
4442.049883
4412.278991
4438.681195
4404.497787
4451.699149
4400.150522
4414.864129
4397.251788
4449.211744
4387.293415
4454.954836
4440.002814
4484.649846
4410.234971
4418.565217
4438.127618
4393.198785
4439.511082
4450.144340
4459.584468
4436.388204
4450.849028
4429.755481
4456.474132
4431.369095
4427.078504
4431.457199
4436.417306
4431.858995
4441.527328
4394.910615
4407.686924
4420.602529
4433.484590
4430.868507
4432.609475
4437.861421
4420.814775
4450.057082
4456.763210
4376.944435
4473.631361
4363.676620
4416.793983
4433.653967
4409.341763
4449.812866
4420.142847
4410.014682
4404.161850
4435.280131
4432.684177
4416.320934
4409.715140
4414.362104
4423.567501
4434.446572
4422.683280
4420.426037
4410.708981
4427.506781
4430.796931
4436.218246
4443.793576
4396.531006
4430.034062
4412.003008
4421.610692
4426.246045
4397.177784
4425.078995
4435.274974
4451.460128
4412.461507
4452.001213
4427.378396
4501.339159
4411.016020
4367.901170
4452.899713
4444.196097
4427.609328
4440.966859
4500.704122
4397.658426
4444.724319
4427.864388
4438.143105
4420.543455
4437.721684
4447.252665
4416.592932
4441.356575
4397.674746
4412.625731
4448.785148
4417.368469
4438.978161
4401.268531
4438.539022
4414.241107
4461.300897
4391.853680
4472.554895
4405.501389
4423.684898
4419.694984
4419.494705
4418.952530
4433.693634
4439.220737
4423.353701
4435.829714
4435.042643
4427.815430
4381.479543
4430.361178
4428.664186
4427.015520
4426.505857
4421.719432
4420.949488
4436.440760
4415.017010
4450.712972
4427.692785
4422.244864
4389.573026
4456.450501
4430.537077
4448.998555
4427.604992
4424.343630
4407.946762
4450.296667
4432.641326
4432.597688
4410.095971
4403.555053
4414.473055
4416.708105
4482.525951
4390.804367
4438.971081
4432.510695
4366.412887
4436.802096
4409.161756
4426.213229
4425.948443
4436.456187
4438.075744
4428.947203
4442.143144
4402.554311
4445.832916
4387.207271
4435.744083
4458.481136
4402.039687
4417.322263
4406.481611
4446.859689
4418.964402
4412.808217
4355.389335
4385.081282
4463.425294
4445.866129
4405.954444
4403.556887
4394.099059
4475.125640
4448.359038
4396.441766
4448.566781
4445.191313
4434.515364
4456.017604
4435.271294
4436.311254
4414.758960
4428.982753
4417.248879
4427.450830
4436.106109
4414.753373
4442.010748
4415.470921
4402.135110
4438.254448
4439.416775
4419.489632
4438.098505
4424.583344
4422.105537
4483.047394
4462.058023
4435.897133
4445.428428
4553.695535
4419.467784
4415.142362
4443.799819
4449.291558
4394.530100
4425.605360
4405.024366
4424.270086
4415.563207
4426.056442
4430.811452
4434.400645
4444.334778
4433.741090
4424.075165
4441.066858
4405.938663
4443.434968
4431.274559
4421.445818
4416.302730
4420.735138
4427.746253
4414.323389
4440.135030
4391.227768
4442.538205
4387.546928
4376.396110
4432.814524
4439.844295
4457.984527
4475.621568
4472.423530
4420.814229
4444.174115
4426.643155
4453.119157
4347.755932
4409.665717
4430.813489
4426.765512
4432.990273
4404.167638
4441.407062
4436.268952
4402.404672
4449.922346
4398.454316
4412.704752
4459.003928
4422.252902
4425.496187
4444.348821
4426.645225
4437.204732
4415.707231
4382.586623
4470.596595
4465.900306
4448.205828
4400.422150
4396.621583
4460.446962
4370.822528
4434.159072
4390.532139
4449.083539
4430.526686
4449.425591
4425.872492
4441.359304
4429.630142
4431.597915
4441.261705
4434.639890
4414.568792
4415.952955
4426.782395
4425.270782
4447.973153
4384.708551
4455.434803
4410.432812
4423.456744
4381.958724
4436.934762
4449.730709
4463.725214
4346.571518
4470.783793
4459.276837
4455.744112
4460.999059
4435.431173
4471.392775
4402.346000
4448.258686
4431.316443
4399.121441
4392.231825
4439.438641
4432.003468
4427.708528
4419.563552
4418.520903
4418.759601
4446.380372
4392.882020
4428.447222
4392.394100
4449.436466
4401.929811
4444.528704
4390.639017
4461.585685
4426.168870
4426.685102
4383.155406
4447.221206
4308.688293
4498.448340
4570.157302
4422.893754
4409.328497
4458.967436
4427.050690
4376.924623
4443.600519
4492.032891
4366.490646
4453.031503
4445.588481
4427.929144
4436.155950
4435.385487
4430.350789
4431.678053
4433.355724
4427.000280
4440.197451
4460.707323
4408.795086
4392.334435
4422.104428
4440.545287
4416.530886
4397.737564
4456.911847
4385.497940
4452.716728
4455.390359
4505.461456
4427.300471
4420.519868
4398.456592
4430.511831
4401.636941
4422.706870
4430.647578
4447.820820
4431.839433
4378.671529
4453.855453
4422.625602
4427.738260
4423.231936
4425.497253
4415.537527
4431.785440
4424.232378
4398.647708
4377.258328
4455.448200
4451.724858
4432.606117
4406.649925
4443.243711
4439.275412
4431.098250
4444.820078
4444.868236
4443.571575
4481.012782
4636.125597
4474.379766
4620.210985
4425.358336
4434.931987
4437.926591
4446.744264
4443.877046
4420.876951
4423.356754
4414.457362
4425.725963
4436.397839
4426.005701
4431.661905
4420.674535
4427.684248
4441.268910
4458.129113
4442.744354
4413.653281
4388.629473
4411.291970
4442.122392
4428.930364
4387.077023
4422.978387
4418.876872
4405.235282
4418.843832
4422.657199
4394.530371
4422.986123
4443.767561
4403.518224
4442.697326
4454.712131
4454.100387
4402.867287
4463.325615
4452.656702
4408.873889
4424.418520
4430.868987
4403.899381
4427.956395
4422.400426
4429.292005
4401.781641
4454.141983
4420.282632
4444.166970
4428.336033
4438.278934
4419.787047
4443.755506
4442.040678
4447.553826
4396.108548
4432.413263
4467.124873
4460.671882
4425.779575
4446.484298
4379.907018
4467.322145
4437.991708
4398.411489
4468.494344
4439.403122
4363.651240
4430.316749
4396.745644
4421.548618
4417.362197
4442.813898
4435.901654
4421.228590
4427.856875
4428.129900
4400.702973
4425.306263
4428.285380
4411.870171
4415.570504
4420.973242
4408.196706
4429.623554
4414.008010
4434.750751
4344.840056
4444.424496
4490.866930
4406.057144
4471.242972
4461.111697
4446.802744
4439.299898
4446.257358
4421.845548
4502.439253
4382.162548
4449.719498
4402.261519
4423.254546
4432.498844
4414.587841
4416.769824
4427.758431
4409.079242
4409.741024
4429.186200
4427.427620
4422.188290
4409.630771
4435.162676
4389.663362
4438.967344
4421.303383
4450.088521
4401.017752
4400.195957
4443.693850
4425.683717
4464.125351
4438.909389
4452.011844
4456.026587
4454.597956
4436.972059
4437.158314
4446.536281
4374.219146
4395.212800
4421.146471
4425.042723
4429.000212
4424.781311
4430.343257
4440.357525
4411.283016
4465.944157
4427.648849
4417.911743
4424.203862
4430.505968
4449.984769
4396.103173
4409.098259
4429.450817
4415.468648
4450.710197
4397.186932
4434.591426
4452.660743
4407.878647
4433.254442
4461.353593
4441.059535
4357.781561
4492.264805
4433.790919
4401.093213
4475.300707
4457.531315
4418.120916
4424.334977
4417.965520
4425.362361
4422.268239
4415.363411
4449.936509
4386.076324
4445.354066
4419.987285
4399.414221
4381.159488
4447.431110
4439.643629
4417.332243
4404.358722
4446.477785
4404.737425
4437.524200
4389.159913
4428.368148
4410.441639
4440.482439
4451.778723
4431.599964
4457.219607
4456.960225
4412.334319
4449.653710
4467.741760
4352.262468
4413.827037
4420.025223
4424.215935
4436.371179
4425.114452
4411.629463
4441.189591
4430.051781
4433.986536
4415.282027
4436.773032
4415.198861
4436.703814
4385.961367
4427.358631
4405.375984
4403.806935
4388.408775
4463.897323
4422.468082
4486.965435
4437.837256
4408.168240
4448.374794
4446.171684
4452.107094
4414.700722
4473.349251
4415.614827
4474.026905
4424.638335
4404.615930
4422.143377
4429.950548
4407.650626
4427.220294
4440.115072
4388.337451
4435.656132
4432.292414
4429.424946
4450.651077
4390.292100
4418.801895
4424.104835
4439.873152
4462.192203
4373.388781
4462.286652
4381.502752
4372.957899
4441.146351
4440.614999
4419.000236
4504.542174
4469.666766
4448.452028
4437.165873
4447.877876
4429.841094
4429.426279
4434.044191
4419.080012
4418.920357
4422.862389
4435.507565
4415.335961
4434.400536
4437.378052
4416.017271
4405.249003
4424.757003
4448.549474
4433.046980
4459.982844
4423.381312
4424.640560
4453.000669
4451.089875
4365.102438
4468.096762
4496.289850
4489.896584
4420.890005
4614.547071
4462.938901
4472.296998
4459.097593
4456.457672
4463.661642
4379.764394
4466.296637
4402.503398
4446.084922
4423.069564
4433.318588
4425.390623
4424.346175
4402.296574
4437.617770
4420.560203
4438.252331
4395.458106
4424.882354
4431.572406
4384.026910
4440.966534
4412.122447
4417.146651
4425.866726
4433.301294
4485.836335
4355.168335
4368.540476
4368.776133
4472.556564
4418.952892
4473.866638
4447.768673
4455.089746
4454.037092
4418.070777
4460.928440
4401.414140
4389.065854
4433.671568
4429.530113
4411.681205
4435.944974
4433.960631
4419.742648
4420.919248
4421.599583
4408.195106
4439.326595
4394.541678
4445.630570
4448.204390
4410.253584
4402.484062
4433.308569
4431.341982
4416.405887
4442.979865
4570.473249
4332.466363
4372.660568
4503.044079
4466.512256
4431.048890
4469.217016
4423.815171
4478.894764
4456.868642
4423.466194
4434.996632
4429.576010
4426.398558
4445.049496
4415.436638
4405.885391
4421.938179
4414.745362
4427.432141
4415.484456
4425.416828
4426.862132
4414.045507
4391.250109
4418.494589
4448.945256
4427.685227
4410.142552
4413.085735
4429.318581
4488.774119
4402.915119
4456.066168
4456.183909
4459.264458
4445.442351
4418.087262
4434.625782
4461.969232
4415.713654
4448.077846
4436.898766
4436.391647
4422.082643
4429.519385
4422.805838
4420.908351
4450.923062
4412.501441
4435.789072
4440.529025
4414.479180
4418.925571
4418.287080
4447.518282
4453.978444
4410.064692
4425.147604
4433.737591
4436.178620
4462.274726
4457.210472
4488.234378
4486.151264
4456.346830
4458.729585
4448.441298
4464.241708
4441.379164
4483.071655
4388.928042
4389.046411
4353.440913
4429.886843
4432.408834
4416.720113
4424.050070
4444.348560
4394.389499
4452.575555
4402.893808
4437.236254
4421.093245
4417.630908
4431.748839
4404.213837
4409.362440
4402.973298
4462.899669
4429.735359
4411.941218
4448.046064
4446.582013
4435.065991
4444.681357
4458.128405
4460.087305
4433.018687
4430.878005
4432.643011
4472.760910
4451.102625
4437.647910
4416.133917
4427.692537
4419.800127
4449.748082
4404.117624
4421.708497
4417.700640
4431.055227
4407.878268
4410.325455
4440.014245
4430.340174
4441.276215
4412.565437
4432.603563
4442.104805
4412.215846
4425.396583
4439.449870
4442.216906
4454.862415
4447.269438
4433.805177
4481.536904
4405.502144
4460.478497
4437.744261
4436.099708
4443.458736
4462.937143
4417.214282
4400.800575
4434.085816
4427.549574
4417.655871
4437.275541
4421.568197
4431.352684
4430.931164
4432.662603
4449.928335
4408.015432
4419.530516
4414.214630
4452.050250
4450.966131
4393.712892
4430.823849
4451.869109
4411.379890
4432.705179
4425.255230
4452.575300
4462.666852
4453.145320
4457.479894
4424.670624
4481.821768
4455.302556
4434.171968
4396.578574
4400.031781
4379.609415
4429.236600
4431.462701
4418.805348
4433.154420
4426.961226
4420.224027
4430.355656
4426.602182
4398.161198
4446.250334
4430.810557
4420.560591
4400.208324
4438.145438
4412.865748
4402.286649
4425.255384
4453.305889