# vtk DataFile Version 2.0
mfree iwf
ASCII

DATASET UNSTRUCTURED_GRID
POINTS 6231 float
0.000000 0.000300 0.000000
0.000000 0.000310 0.000000
0.000000 0.000320 0.000000
0.000000 0.000330 0.000000
0.000000 0.000340 0.000000
0.000001 0.000350 0.000000
0.000001 0.000361 0.000000
0.000001 0.000371 0.000000
0.000001 0.000381 0.000000
0.000001 0.000391 0.000000
0.000001 0.000401 0.000000
0.000001 0.000411 0.000000
0.000001 0.000421 0.000000
0.000001 0.000431 0.000000
0.000001 0.000441 0.000000
0.000002 0.000451 0.000000
0.000002 0.000461 0.000000
0.000002 0.000471 0.000000
0.000002 0.000480 0.000000
0.000001 0.000492 0.000000
0.000006 0.000501 0.000000
0.000073 0.000518 0.000000
0.000073 0.000544 0.000000
0.000073 0.000539 0.000000
0.000073 0.000558 0.000000
0.000073 0.000562 0.000000
0.000073 0.000579 0.000000
0.000073 0.000581 0.000000
0.000073 0.000594 0.000000
0.000073 0.000608 0.000000
0.000073 0.000651 0.000000
0.000010 0.000300 0.000000
0.000010 0.000310 0.000000
0.000010 0.000320 0.000000
0.000010 0.000330 0.000000
0.000010 0.000340 0.000000
0.000010 0.000351 0.000000
0.000011 0.000360 0.000000
0.000011 0.000370 0.000000
0.000011 0.000380 0.000000
0.000011 0.000391 0.000000
0.000011 0.000401 0.000000
0.000011 0.000411 0.000000
0.000011 0.000420 0.000000
0.000011 0.000431 0.000000
0.000011 0.000440 0.000000
0.000012 0.000451 0.000000
0.000012 0.000460 0.000000
0.000011 0.000471 0.000000
0.000013 0.000479 0.000000
0.000009 0.000492 0.000000
0.000013 0.000498 0.000000
0.000078 0.000536 0.000000
0.000084 0.000552 0.000000
0.000081 0.000566 0.000000
0.000083 0.000574 0.000000
0.000081 0.000595 0.000000
0.000080 0.000604 0.000000
0.000079 0.000619 0.000000
0.000076 0.000628 0.000000
0.000076 0.000635 0.000000
0.000073 0.000643 0.000000
0.000020 0.000300 0.000000
0.000020 0.000310 0.000000
0.000020 0.000320 0.000000
0.000020 0.000330 0.000000
0.000021 0.000340 0.000000
0.000020 0.000350 0.000000
0.000021 0.000360 0.000000
0.000020 0.000371 0.000000
0.000021 0.000380 0.000000
0.000020 0.000390 0.000000
0.000021 0.000400 0.000000
0.000021 0.000411 0.000000
0.000021 0.000420 0.000000
0.000021 0.000431 0.000000
0.000022 0.000440 0.000000
0.000022 0.000451 0.000000
0.000022 0.000460 0.000000
0.000022 0.000471 0.000000
0.000021 0.000481 0.000000
0.000024 0.000494 0.000000
0.000020 0.000498 0.000000
0.000088 0.000535 0.000000
0.000093 0.000546 0.000000
0.000087 0.000553 0.000000
0.000092 0.000568 0.000000
0.000089 0.000581 0.000000
0.000087 0.000591 0.000000
0.000086 0.000609 0.000000
0.000081 0.000625 0.000000
0.000084 0.000637 0.000000
0.000085 0.000648 0.000000
0.000030 0.000300 0.000000
0.000030 0.000310 0.000000
0.000030 0.000321 0.000000
0.000030 0.000330 0.000000
0.000031 0.000340 0.000000
0.000029 0.000351 0.000000
0.000032 0.000361 0.000000
0.000030 0.000370 0.000000
0.000032 0.000380 0.000000
0.000030 0.000391 0.000000
0.000032 0.000400 0.000000
0.000030 0.000410 0.000000
0.000033 0.000420 0.000000
0.000030 0.000431 0.000000
0.000033 0.000440 0.000000
0.000030 0.000451 0.000000
0.000033 0.000460 0.000000
0.000030 0.000471 0.000000
0.000033 0.000479 0.000000
0.000031 0.000488 0.000000
0.000032 0.000498 0.000000
0.000062 0.000501 0.000000
0.000099 0.000552 0.000000
0.000095 0.000563 0.000000
0.000097 0.000581 0.000000
0.000096 0.000591 0.000000
0.000095 0.000602 0.000000
0.000094 0.000613 0.000000
0.000093 0.000622 0.000000
0.000094 0.000633 0.000000
0.000093 0.000647 0.000000
0.000040 0.000300 0.000000
0.000040 0.000310 0.000000
0.000040 0.000320 0.000000
0.000040 0.000330 0.000000
0.000040 0.000341 0.000000
0.000040 0.000350 0.000000
0.000041 0.000360 0.000000
0.000039 0.000371 0.000000
0.000042 0.000381 0.000000
0.000039 0.000390 0.000000
0.000042 0.000399 0.000000
0.000040 0.000411 0.000000
0.000043 0.000421 0.000000
0.000039 0.000431 0.000000
0.000043 0.000439 0.000000
0.000040 0.000451 0.000000
0.000044 0.000460 0.000000
0.000041 0.000471 0.000000
0.000043 0.000479 0.000000
0.000043 0.000497 0.000000
0.000040 0.000498 0.000000
0.000073 0.000505 0.000000
0.000107 0.000550 0.000000
0.000107 0.000565 0.000000
0.000103 0.000574 0.000000
0.000106 0.000588 0.000000
0.000103 0.000604 0.000000
0.000103 0.000619 0.000000
0.000102 0.000628 0.000000
0.000101 0.000638 0.000000
0.000102 0.000647 0.000000
0.000050 0.000300 0.000000
0.000050 0.000310 0.000000
0.000050 0.000320 0.000000
0.000051 0.000331 0.000000
0.000050 0.000339 0.000000
0.000050 0.000350 0.000000
0.000050 0.000361 0.000000
0.000051 0.000370 0.000000
0.000051 0.000379 0.000000
0.000050 0.000390 0.000000
0.000052 0.000401 0.000000
0.000049 0.000410 0.000000
0.000053 0.000419 0.000000
0.000050 0.000430 0.000000
0.000053 0.000441 0.000000
0.000049 0.000450 0.000000
0.000054 0.000459 0.000000
0.000049 0.000471 0.000000
0.000054 0.000480 0.000000
0.000050 0.000488 0.000000
0.000049 0.000498 0.000000
0.000081 0.000529 0.000000
0.000092 0.000527 0.000000
0.000110 0.000563 0.000000
0.000112 0.000580 0.000000
0.000110 0.000595 0.000000
0.000112 0.000602 0.000000
0.000109 0.000612 0.000000
0.000113 0.000622 0.000000
0.000111 0.000636 0.000000
0.000112 0.000647 0.000000
0.000060 0.000300 0.000000
0.000060 0.000310 0.000000
0.000060 0.000320 0.000000
0.000060 0.000330 0.000000
0.000060 0.000340 0.000000
0.000061 0.000351 0.000000
0.000060 0.000359 0.000000
0.000061 0.000369 0.000000
0.000060 0.000381 0.000000
0.000061 0.000391 0.000000
0.000061 0.000399 0.000000
0.000061 0.000410 0.000000
0.000063 0.000421 0.000000
0.000059 0.000431 0.000000
0.000063 0.000439 0.000000
0.000060 0.000450 0.000000
0.000064 0.000461 0.000000
0.000060 0.000470 0.000000
0.000064 0.000479 0.000000
0.000067 0.000489 0.000000
0.000058 0.000496 0.000000
0.000082 0.000520 0.000000
0.000106 0.000541 0.000000
0.000121 0.000568 0.000000
0.000118 0.000577 0.000000
0.000120 0.000588 0.000000
0.000121 0.000605 0.000000
0.000121 0.000617 0.000000
0.000119 0.000628 0.000000
0.000121 0.000636 0.000000
0.000121 0.000647 0.000000
0.000070 0.000300 0.000000
0.000070 0.000310 0.000000
0.000070 0.000320 0.000000
0.000070 0.000330 0.000000
0.000071 0.000340 0.000000
0.000070 0.000349 0.000000
0.000071 0.000360 0.000000
0.000071 0.000372 0.000000
0.000070 0.000380 0.000000
0.000071 0.000389 0.000000
0.000071 0.000401 0.000000
0.000072 0.000411 0.000000
0.000071 0.000419 0.000000
0.000071 0.000430 0.000000
0.000073 0.000441 0.000000
0.000069 0.000451 0.000000
0.000074 0.000459 0.000000
0.000070 0.000470 0.000000
0.000073 0.000481 0.000000
0.000071 0.000495 0.000000
0.000079 0.000498 0.000000
0.000082 0.000510 0.000000
0.000099 0.000536 0.000000
0.000115 0.000552 0.000000
0.000129 0.000580 0.000000
0.000125 0.000593 0.000000
0.000129 0.000601 0.000000
0.000128 0.000613 0.000000
0.000131 0.000624 0.000000
0.000130 0.000636 0.000000
0.000131 0.000646 0.000000
0.000080 0.000300 0.000000
0.000080 0.000310 0.000000
0.000080 0.000320 0.000000
0.000081 0.000330 0.000000
0.000080 0.000340 0.000000
0.000080 0.000350 0.000000
0.000081 0.000361 0.000000
0.000080 0.000369 0.000000
0.000081 0.000380 0.000000
0.000080 0.000391 0.000000
0.000081 0.000400 0.000000
0.000081 0.000409 0.000000
0.000081 0.000420 0.000000
0.000082 0.000431 0.000000
0.000081 0.000439 0.000000
0.000082 0.000449 0.000000
0.000083 0.000461 0.000000
0.000081 0.000472 0.000000
0.000084 0.000478 0.000000
0.000084 0.000487 0.000000
0.000086 0.000501 0.000000
0.000090 0.000513 0.000000
0.000097 0.000519 0.000000
0.000124 0.000560 0.000000
0.000132 0.000572 0.000000
0.000134 0.000588 0.000000
0.000137 0.000602 0.000000
0.000138 0.000614 0.000000
0.000138 0.000625 0.000000
0.000140 0.000635 0.000000
0.000141 0.000645 0.000000
0.000090 0.000300 0.000000
0.000090 0.000310 0.000000
0.000091 0.000320 0.000000
0.000090 0.000330 0.000000
0.000090 0.000340 0.000000
0.000090 0.000350 0.000000
0.000091 0.000360 0.000000
0.000090 0.000370 0.000000
0.000091 0.000381 0.000000
0.000090 0.000389 0.000000
0.000092 0.000399 0.000000
0.000090 0.000411 0.000000
0.000092 0.000421 0.000000
0.000091 0.000428 0.000000
0.000091 0.000440 0.000000
0.000093 0.000452 0.000000
0.000090 0.000459 0.000000
0.000094 0.000468 0.000000
0.000093 0.000482 0.000000
0.000093 0.000493 0.000000
0.000097 0.000501 0.000000
0.000101 0.000510 0.000000
0.000105 0.000529 0.000000
0.000116 0.000541 0.000000
0.000127 0.000552 0.000000
0.000141 0.000584 0.000000
0.000144 0.000599 0.000000
0.000145 0.000611 0.000000
0.000148 0.000623 0.000000
0.000149 0.000634 0.000000
0.000151 0.000644 0.000000
0.000100 0.000300 0.000000
0.000100 0.000310 0.000000
0.000100 0.000320 0.000000
0.000100 0.000330 0.000000
0.000101 0.000341 0.000000
0.000100 0.000350 0.000000
0.000101 0.000360 0.000000
0.000100 0.000370 0.000000
0.000101 0.000379 0.000000
0.000100 0.000390 0.000000
0.000102 0.000401 0.000000
0.000100 0.000409 0.000000
0.000102 0.000419 0.000000
0.000101 0.000431 0.000000
0.000103 0.000441 0.000000
0.000101 0.000448 0.000000
0.000102 0.000460 0.000000
0.000103 0.000471 0.000000
0.000101 0.000480 0.000000
0.000106 0.000488 0.000000
0.000105 0.000497 0.000000
0.000108 0.000514 0.000000
0.000110 0.000524 0.000000
0.000116 0.000530 0.000000
0.000139 0.000571 0.000000
0.000147 0.000585 0.000000
0.000151 0.000596 0.000000
0.000154 0.000610 0.000000
0.000156 0.000620 0.000000
0.000158 0.000632 0.000000
0.000160 0.000643 0.000000
0.000110 0.000300 0.000000
0.000110 0.000310 0.000000
0.000110 0.000320 0.000000
0.000111 0.000330 0.000000
0.000110 0.000339 0.000000
0.000110 0.000350 0.000000
0.000111 0.000361 0.000000
0.000110 0.000370 0.000000
0.000111 0.000380 0.000000
0.000111 0.000390 0.000000
0.000111 0.000399 0.000000
0.000111 0.000410 0.000000
0.000112 0.000422 0.000000
0.000110 0.000429 0.000000
0.000113 0.000439 0.000000
0.000111 0.000451 0.000000
0.000114 0.000461 0.000000
0.000111 0.000469 0.000000
0.000114 0.000479 0.000000
0.000115 0.000493 0.000000
0.000113 0.000503 0.000000
0.000118 0.000511 0.000000
0.000121 0.000520 0.000000
0.000123 0.000541 0.000000
0.000133 0.000557 0.000000
0.000142 0.000564 0.000000
[...]
POINT_DATA 6231
SCALARS density float 1
LOOKUP_TABLE default
4388.460649
4420.640576
4421.505683
4423.985987
4418.824413
4419.154547
4428.421568
4425.383723
4420.263282
4424.503789
4427.936525
4429.520335
4425.345685
4429.391464
4427.463611
4433.959741
4428.632839
4444.686756
4428.101154
4430.121831
4413.237141
4678.169653
4418.365889
4601.220951
4513.910504
4524.043650
4478.013724
4533.873218
4516.653718
4568.065146
4393.606889
4398.473360
4418.843132
4422.286177
4418.400149
4414.902367
4426.694922
4421.912328
4417.522733
4423.498866
4430.568171
4421.313087
4423.724331
4422.887511
4436.335337
4419.405349
4437.194065
4408.758614
4429.662604
4408.437124
4479.962508
4405.556665
4433.436354
4457.855406
4421.345081
4482.050273
4413.703452
4412.059309
4407.152342
4406.458784
4408.619648
4580.001322
4411.629790
4412.400399
4415.267330
4413.965789
4428.424193
4430.250308
4403.861220
4433.824441
4424.068012
4422.205484
4416.651004
4438.875667
4416.493115
4436.039181
4409.560777
4454.611542
4397.626163
4488.489311
4341.703992
4437.568938
4393.530218
4479.922130
4452.276639
4474.457891
4470.033790
4417.774309
4454.192980
4474.332562
4449.893212
4489.604226
4426.692191
4403.304779
4413.654886
4432.033156
4425.418410
4413.322288
4411.124447
4439.956301
4440.338316
4394.105598
4437.970849
4419.623692
4438.125627
4407.737994
4444.700103
4407.859328
4449.762689
4379.071328
4475.196531
4337.674786
4628.926217
4354.178934
4414.033669
4470.440811
4448.361303
4472.254451
4462.885899
4452.689934
4439.353957
4422.945038
4479.575494
4447.632518
4405.088456
4434.285958
4420.276393
4408.010193
4432.839896
4431.362481
4416.711998
4411.564174
4445.607828
4447.477974
4398.876411
4435.759126
4425.198070
4445.083149
4405.080219
4447.258099
4412.033624
4490.983738
4322.367513
4421.023092
4377.066082
4435.640319
4426.749386
4467.962404
4428.363198
4433.999466
4444.427251
4458.489938
4455.990205
4382.253419
4454.726366
4424.077039
4428.104604
4400.467134
4440.315548
4430.540209
4411.872651
4419.918737
4435.380577
4432.454930
4405.504920
4452.050908
4444.297910
4405.569437
4433.362311
4423.903312
4445.603460
4384.363175
4463.812547
4391.379550
4585.940749
4376.118497
4420.436142
4537.647065
4466.069965
4466.044650
4434.497911
4465.363270
4445.276476
4426.090563
4458.335586
4450.653416
4416.064959
4415.109449
4432.370257
4440.387734
4395.235254
4442.081859
4442.225141
4412.679475
4409.167356
4441.756232
4443.971137
4400.643448
4448.846948
4438.338241
4407.271711
4435.371269
4435.665398
4439.255356
4445.894328
4441.683499
4403.565701
4404.702060
4492.499094
4423.683558
4469.940007
4435.045760
4445.495416
4455.258007
4443.263985
4426.148710
4443.301199
4415.775882
4436.247381
4430.024015
4401.248339
4440.037377
4443.198057
4392.715955
4441.502788
4443.093688
4418.305271
4400.058255
4446.848363
4446.493375
4399.375266
4440.015141
4425.482696
4405.204805
4415.113437
4408.982777
4443.508084
4514.158554
4382.114698
4421.668438
4458.552280
4472.453578
4455.668141
4463.739344
4432.118120
4443.794983
4443.191917
4444.211812
4432.585269
4425.083620
4409.531738
4437.655911
4438.796503
4398.942674
4447.037048
4445.773481
4396.527521
4430.876680
4443.742196
4429.705374
4392.439538
4449.795344
4450.474136
4394.346718
4428.339823
4430.166043
4462.692144
4358.714507
4466.478478
4530.565650
4434.983835
4477.582584
4454.999633
4460.828567
4441.578315
4452.292773
4443.045691
4444.112909
4436.016529
4423.025674
4416.905974
4440.764668
4437.719349
4402.777827
4435.822271
4442.082804
4396.671131
4454.263829
4446.674048
4399.415397
4417.968735
4448.238883
4440.512603
4387.471543
4454.566558
4455.933365
4369.571584
4466.863275
4431.720124
4418.267296
4438.914663
4455.892978
4461.113732
4450.085379
4455.485945
4454.485121
4456.214408
4440.812056
4434.083665
4438.951368
4422.565857
4434.789297
4433.444050
4402.490659
4445.193743
4443.545180
4399.823931
4437.201107
4442.884335
4396.396113
4456.194240
4448.519907
4400.280781
4406.072329
4455.764679
4440.617488
4388.908967
4457.464458
4431.980968
4412.870729
4476.193431
4460.778656
4466.069357
4460.349949
4439.969335
4452.706652
4461.042295
4463.273986
4445.689109
4448.833558
4434.219158
4429.242746
4427.961524
4414.798198
4443.780282
4443.194441
4397.927026
4446.297502
4441.427458
4400.215857
4442.517777
4443.049360
4395.542478
4455.258255
4451.401288
4401.557821
4396.904166
4442.903147
4464.827165
4385.472792
4441.536468
4425.578360
4445.041418
4427.698968
4442.838060
4430.640214
4473.019725
4458.972859
4457.403225
4414.293629
4461.430722
4419.768568
4428.273567
4432.160898
4437.713472
4431.852682
4405.030980
4449.805560
4447.363977
4398.608619
4444.410413
4437.232679
4402.384608
4449.088493
4446.175278
4393.853383
4448.984967
4464.625141
4407.849227
4397.962535
4453.218565
4462.665578
4406.271130
4469.867903
4442.839761
4459.845898
4455.532900
4446.540224
4431.432771
4483.505325
4437.576835
4463.509062
4426.906247
4437.808778
4427.918458
4422.289379
4422.375585
4441.991584
4440.923269
4400.156432
4454.017851
4443.297335
4404.386696
4444.487112
4432.285123
4399.862555
4455.108951
4452.989808
4384.300355
4445.063592
4456.046059
4415.701664
4416.890421
4453.055231
4434.992775
4450.297733
4418.777289
4447.925345
4428.398295
4421.368022
4436.007656
4412.075939
4466.137107
4423.703188
4429.240017
4420.616321
4439.383861
4439.530363
4423.032346
4413.475432
4448.631973
4448.431210
4399.183649
4453.667163
4432.823337
4415.313347
4447.118825
4423.853384
4396.286191
4458.614319
4461.502716
4381.518593
4433.920762
4431.467975
4448.052932
4424.053617
4462.375017
4445.349841
4457.297458
4452.703017
4456.314693
4433.862171
4481.616106
4436.704011
4451.566480
4424.217026
4439.263100
4438.302413
4409.883342
4436.693425
4442.416245
4426.141791
4408.415953
4454.675108
4448.595310
4402.264573
4451.282691
4423.242972
4427.875223
4446.931910
4426.304116
4386.188938
4455.720930
4468.786102
4383.332963
4453.516604
4423.937392
4453.680645
4433.987618
4446.688553
4427.311729
4449.065622
4438.232662
4436.071303
4391.868234
4454.021264
4437.613375
4434.388203
4411.994113
4445.184618
4447.613565
4409.706804
4428.054418
4445.517936
4435.573568
4406.417506
4456.411134
4438.114762
4412.415079
4451.069838
4414.181561
4425.442643
4450.644388
4435.138263
4394.420786
4450.934460
4442.993373
4423.874773
4451.836815
4434.821206
4456.924200
4433.890128
4442.741583
4466.371238
4495.610663
4412.196436
4449.756394
4430.696702
4424.848987
4439.632968
4444.747816
4403.602896
4450.217815
4450.562500
4408.468486
4419.495992
4448.750008
4444.205694
4404.392182
4456.423653
4422.281894
4434.108872
4449.046111
4416.646526
4416.809327
4437.865600
4462.986072
4387.751999
4445.032959
4435.849851
4440.456634
4445.663459
4437.771672
4459.195124
4416.765417
4467.917251
4447.824529
4440.997008
4431.369153
4437.282403
4432.317926
4413.391914
4440.993527
4451.314680
4400.972766
4451.206805
4453.486599
4406.878404
4415.652027
4452.122407
4442.879892
4402.037877
4454.775012
4411.881773
4451.302335
4432.725220
4417.936927
4423.266587
4452.373069
4453.968919
4424.325729
4452.494954
4437.958807
4450.411717
4439.396352
4433.201377
4402.181503
4469.604233
4434.269265
4433.472832
4430.836914
4422.957827
4444.246036
4441.474052
4404.368468
4443.988288
4452.875657
4399.264167
4448.887575
4452.978047
4406.506657
4418.120308
4449.794152
4435.023802
4403.115225
4457.548563
4407.035677
4462.226780
4422.170047
4426.167643
4438.312062
4433.325490
4457.814005
4432.427530
4455.457746
4437.800918
4467.982480
4414.307338
4485.655209
4422.036962
4431.359960
4436.046231
4439.252215
4430.778937
4415.159954
4446.586189
4448.627541
4400.059616
4445.252659
4454.517109
4399.189663
4443.261561
4448.853550
4408.047224
4425.707762
4435.275552
4428.169440
4426.318664
4462.294542
4389.766272
4467.973162
4417.097932
4456.659425
4442.773091
4440.452711
4453.289558
4443.490356
4451.135587
4430.389912
4466.971444
4432.374770
4442.791773
4431.638107
4424.967656
4429.748905
4443.459172
4435.285885
4408.714455
4447.594557
4451.745728
4397.389529
4448.878861
4457.920567
4402.561069
4434.951386
4445.098037
4415.023552
4429.533739
4426.254498
4427.290876
4459.796532
4449.015295
4399.552045
4456.976534
4423.310693
4464.759478
4446.075910
4451.885568
4442.072790
4477.182111
4445.185699
4452.707344
4434.020380
4422.655862
4443.739803
4441.634070
4423.595137
4422.779717
4446.568612
4441.998073
4404.872779
4446.563553
4453.570143
4394.139556
4451.640153
4462.077584
4401.420822
4434.719177
4437.853854
4422.569770
4434.143689
4441.392187
4423.030305
4462.138417
4439.147207
4430.996711
4464.993909
4418.201976
4477.650763
4451.308675
4497.796017
4432.080303
4476.803196
4431.768409
4438.304648
4439.883033
4413.740939
4441.876872
4444.718439
4424.297646
4416.773503
4450.030241
4446.110199
4402.504340
4447.732771
4455.031699
4393.514204
4451.605595
4460.698426
4396.647612
4446.562469
4427.610505
4415.013856
4454.270387
4451.533824
4420.133927
4467.771931
4453.310586
4446.208399
4473.979946
4425.163691
4476.267363
4434.643294
4455.123527
4436.494979
4433.355426
4420.199647
4445.135322
4448.833702
4411.849025
4437.785194
4445.449681
4429.117732
4414.231210
4449.562695
4448.183816
4401.339317
4452.626249
4458.861132
4397.176941
4456.061967
4445.925348
4405.808276
4456.071550
4437.042449
4422.935309
4476.843735
4422.613961
4448.801398
4462.982754
4460.117917
4455.932747
4455.779029
4453.740883
4461.020055
4434.710283
4435.852317
4441.316928
4436.940470
4412.190184
4449.961593
4452.204722
4412.376530
4429.345515
4446.755988
4438.569240
4412.488922
4449.273165
4451.547022
4399.921174
4454.868678
4466.937660
4394.461258
4454.179081
4429.989094
4423.026836
4454.693590
4452.616469
4414.620784
4478.015274
4420.919742
4471.596666
4437.326165
4464.219560
4450.052960
4457.242332
4443.713430
4434.223396
4425.697179
4429.805093
4442.901135
4444.112736
4407.772160
4453.656565
4453.555913
4412.124653
4424.413985
4448.552166
4446.178648
4409.637297
4449.431997
4455.265447
4399.349440
4458.276045
4464.713955
4392.810179
4460.334125
4417.914093
4441.222812
4460.040884
4451.481315
4417.215106
4474.367780
4424.822419
4479.207376
4440.144497
4457.041968
4435.673787
4425.745888
4441.248558
4443.726958
4425.741040
4422.398157
4446.468234
4449.965437
4406.434349
4452.532140
4453.251415
4414.899287
4423.730159
4451.763369
4453.215027
4407.206188
4448.222414
4457.464322
4400.232731
4457.828613
4449.257947
4408.505909
4466.016462
4424.120311
4453.825212
4455.021457
4456.436028
4455.009874
4460.222311
4444.519771
4455.597796
4431.648045
4439.970826
4441.134588
4417.138177
4439.776979
4445.125832
4429.684682
4417.008059
4450.387350
4455.423509
4404.480131
4448.084182
4451.634657
4418.993991
4423.809828
4450.567096
4461.341610
4406.022083
4449.429060
4461.868966
4403.110435
4444.459419
4434.222964
4435.440245
4456.433366
4440.071549
4451.006050
4455.375619
4445.195739
4451.964764
4451.550579
4441.175881
4436.480922
4419.122025
4445.691239
4448.683240
4416.012247
4435.031611
4445.781752
4437.373531
4413.468862
4454.480635
4458.193677
4404.076348
4440.699560
4452.254392
4425.258483
4418.486322
4448.228967
4455.444265
4409.434728
4450.479915
4453.042497
4422.027537
4456.514177
4432.480536
4457.694483
4451.546579
4443.927731
4455.270004
4451.141780
4448.044554
4436.801989
4431.048127
4442.240788
4443.908090
4412.163125
4449.905567
4451.143875
4415.214659
4428.753386
4445.972213
4447.516566
4409.232142
4457.570499
4458.547812
4405.735552
4431.025084
4454.103051
4437.394298
4415.692336
4448.634082
4446.068884
4417.819525
4441.706915
4438.254116
4442.519543
4453.585297
4434.624536
4461.227205
4442.615367
4452.007203
4448.989116
4440.317356
4435.126425
4432.504668
4422.554484
4444.323800
4449.927585
4408.936309
4450.136521
4451.158217
4416.797160
4424.241823
4447.805613
4456.644493
4403.901269
4454.893561
4455.437903
4410.417529
4423.335471
4451.021535
4446.838267
4418.587207
4452.217980
4439.984237
4439.378625
4445.219206
4438.260298
4453.346663
4449.175418
4444.084618
4451.960115
4447.809058
4434.864116
4428.847764
4435.446569
4442.415038
4437.141365
4414.883750
4449.486055
4453.146002
4407.569356
4444.952535
4449.587448
4422.998914
4419.134405
4448.855382
4459.683558
4400.296037
4445.224273
4455.102121
4414.588807
4417.871020
4449.390937
4442.240112
4428.158240
4450.146630
4434.773801
4448.929792
4447.044122
4437.040569
4453.044516
4446.421745
4446.996195
4431.674720
4439.806111
4440.160997
4424.518765
4430.209658
4444.180496
4442.875770
4410.126279
4453.483507
4454.793863
4408.081947
4435.267062
4448.515391
4434.241405
4412.084733
4451.484604
4456.643006
4403.646359
4431.949922
4451.049495
4428.109857
4419.586809
4450.954605
4436.442330
4444.313935
4443.952394
4438.236392
4453.536844
4446.559911
4446.845105
4448.061005
4443.892879
4437.805575
4420.825284
4442.690560
4444.035849
4424.790581
4424.141963
4446.509210
4449.291486
4406.957418
4454.469790
4454.379395
4409.118960
4427.198347
4448.437202
4446.083228
4409.798382
4448.791828
4453.262791
4413.015557
4421.991880
4447.975210
4442.851242
4432.836550
4448.155496
4436.732176
4450.357081
4443.631945
4444.783535
4447.277502
4446.213012
4436.913564
4424.523944
4441.444430
4445.204915
4416.204817
4441.045081
4444.954959
4427.331392
4418.849238
4448.945669
4453.185384
4405.557427
4448.553839
4451.193691
4413.613754
4421.202274
4447.303788
4450.488200
4410.872279
4439.995115
4449.082903
4423.287542
4422.858385
4446.256847
4443.632493
4441.233020
4446.329021
4441.682761
4449.263501
4445.797002
4445.421911
4432.061468
4438.832165
4441.329313
4416.249228
4444.257186
4448.021097
4414.026221
4436.533001
4444.991743
4433.591863
4412.982479
4450.697145
4452.812713
4406.610321
4436.680249
4449.482967
4422.201503
4416.843027
4445.953685
4444.983536
4416.413532
4426.773422
4444.320465
4438.047294
4431.690097
4445.655070
4441.599077
4444.757476
4446.773685
4445.059060
4445.099546
4441.372720
4436.351629
4421.410460
4440.790580
4446.876233
4411.008341
4447.669059
4448.868390
4414.215968
4429.103428
4445.260331
4442.738389
4408.804306
4451.330882
4450.050507
4410.781845
4423.798281
4448.379383
4436.247834
4418.556176
4445.030000
4441.439298
4429.407594
4428.215888
4441.899321
4446.705325
4438.226153
4446.915642
4445.352444
4446.405564
4444.077763
4435.313949
4424.403164
4442.223770
4442.171509
4414.947177
4442.624138
4449.276857
4408.044613
4447.416768
4447.894161
4415.798032
4422.168795
4446.311447
4449.009349
4408.170213
4447.397487
4447.625486
4416.258164
4418.078799
4448.089271
4441.930909
4424.596120
4440.362237
4438.303101
4439.726634
4434.365947
4440.944360
4449.345205
4441.113326
4448.576174
4440.783304
4432.003370
4439.279877
4439.915005
4417.839814
4441.884890
4445.777497
4410.716320
4445.788528
4449.487462
4407.420192
4442.144473
4446.081972
4421.289588
4416.528047
4446.125286
4447.535665
4409.733063
4436.259826
4444.581282
4424.856029
4419.518834
4446.308464
4440.503045
4432.471347
4436.482513
4439.925051
4446.092282
4439.828775
4444.660720
4446.132983
4442.886161
4438.395279
4434.695098
4420.741485
4443.282804
4444.602776
4413.279034
4442.614124
4446.186561
4408.266016
4449.095280
4447.877441
4409.145490
4431.825063
4444.664012
4431.507579
4412.723098
4447.053656
4443.528464
4416.120214
4425.501608
4443.900645
4435.798216
4424.936849
4445.520859
4440.118057
4438.664213
4438.988234
4440.314868
4448.210666
4441.507021
4443.494476
4434.749786
4431.658429
4441.444825
4440.096825
4415.143909
4445.478587
4446.034920
4411.533574
4441.887073
4446.431002
4406.973639
4449.754797
4446.891398
4411.354986
4422.889658
4444.383727
4440.059764
4413.521421
4446.031798
4441.569190
4423.811804
4422.762068
4445.630315
4441.956330
4432.603965
4444.500673
4440.411109
4444.315280
4441.937662
4443.541673
4440.354548
4437.769299
4433.392142
4431.124256
4423.369798
4443.099933
4444.261823
4410.370648
4446.769479
4445.137030
4410.787775
4441.771335
4445.175050
4406.741579
4445.834622
4444.786151
4415.988005
4418.705186
4446.193732
4444.061203
4418.516109
4440.788021
4438.923213
4432.023633
4427.138804
4444.192633
4443.712123
4436.929311
4444.939343
4441.364284
4446.800694
4440.901744
4433.526046
4427.098932
4435.493510
4441.092190
4433.568443
4418.014250
4446.105617
4445.304734
4408.632481
4445.299436
4443.610576
4411.366627
4442.657264
4443.993236
4409.068957
4438.019495
4443.116821
4423.260401
4417.916550
4445.986583
4441.885184
4425.681888
4435.362814
4439.827619
4439.420516
4433.474599
4443.223634
4444.054212
4439.825840
4444.012094
4438.472370
4428.334681
4439.890934
4438.036599
4422.831060
4429.969365
4442.557597
4436.791822
4413.706196
4447.804119
4444.298017
4409.404388
4442.172018
4442.154806
4411.531726
4444.992582
4442.242582
4414.727235
4428.607488
4442.785477
4434.632168
4420.390828
4445.578792
4439.131754
4432.154202
4433.836420
4441.218802
4442.785657
4437.539449
4444.089959
4442.534422
4439.974969
4439.240933
4436.848585
4418.322183
4441.459243
4443.231982
4422.307991
4425.713515
4443.693349
4440.322729
4410.108862
4447.301122
4441.834145
4412.596554
4440.324651
4441.784926
4412.763232
4445.362572
4441.856330
4420.382931
4423.501247
4443.412395
4441.461158
4425.584600
4444.305526
4438.701043
4437.508925
4436.774381
4440.814107
4445.052996
4439.930806
4440.661281
4433.800732
4424.889323
4439.385698
4444.087786
4413.403772
4440.742087
4443.900776
4422.788662
4421.654207
4445.099866
4442.955105
4408.649879
4444.999652
4438.801656
4415.200793
4441.533984
4440.986068
4415.626477
4442.316260
4440.900037
4426.859081
4424.015631
4444.086218
4442.657747
4431.540570
4442.724286
4439.650691
4441.630268
4438.284170
4441.004454
4437.330562
4430.407448
4437.853242
4437.994248
4416.234310
4440.224806
4447.515127
4411.607894
4438.748161
4443.041255
4424.983012
4417.757111
4445.839642
4443.419497
4411.021169
4442.584693
4437.508015
4417.222181
4443.303509
4440.473363
4420.545410
4437.609595
4440.978362
4434.042691
4428.106202
4443.236380
4442.340976
4435.187871
4442.608622
4439.699287
4443.916891
4439.008837
4436.359391
4433.425649
4421.490749
4440.487041
4443.811315
4410.751330
4442.502668
4447.138607
4412.111037
4434.606176
4441.919080
4429.557794
4414.289742
4445.197988
4441.702891
4414.972250
4441.513340
4438.083883
4419.405298
4444.340803
4439.703321
4426.715407
4433.263845
4441.739542
4439.138557
4432.221121
4442.642180
4440.932542
4438.566395
4440.404562
4436.635893
4432.568022
4429.328905
4440.037312
4437.572127
4415.598547
4441.795630
4446.747801
4408.444406
4443.669365
4445.642759
4414.789453
4428.321264
4441.859004
4435.181308
4412.644074
4444.353777
4439.201705
4418.761905
4441.541478
4439.651630
4422.474778
4443.933053
4440.105040
4432.155574
4433.849524
4441.123981
4441.279001
4435.493357
4441.818067
4439.931931
4437.735824
4435.299951
4432.588418
4432.116321
4422.023824
4441.765599
4441.546356
4410.677273
4442.792619
4447.312535
4407.857054
4443.405001
4443.434887
4418.566371
4423.816868
4442.308776
4439.018924
4414.280343
4443.412779
4437.566692
4421.933016
4442.226611
4440.273374
4426.655421
4441.531579
4440.291462
4436.375608
4435.922559
4440.089328
4442.506992
4437.555785
4438.819265
4431.859934
4427.096138
4432.571574
4438.906699
4434.260560
4416.768183
4444.202985
4443.338740
4408.784384
4443.134303
4446.042926
4409.217106
4440.355237
4441.473837
4423.116410
4421.330898
4442.436813
4440.660766
4418.100676
4442.810022
4437.664296
4425.043220
4442.701656
4440.849779
4431.113299
4439.688750
4440.177433
4438.959852
4436.807282
4438.821633
4435.742986
4428.079792
4437.732905
4437.131721
4424.134538
4427.975620
4440.892659
4437.110706
4412.795459
4445.089374
4443.597611
4409.224547
4442.767661
4444.328986
4412.582544
4436.563875
4440.622311
4428.289047
4420.702980
4442.009089
4440.382795
4422.092701
4442.717272
4438.389819
4428.308601
4441.887051
4440.880302
4433.900454
4440.010495
4438.676987
4440.837087
4437.653563
4436.748921
4435.411534
4418.896487
4438.894804
4440.647235
4424.437225
4423.725198
4442.851465
4440.472313
4410.193221
4444.615668
4442.982129
4410.831556
4442.263416
4442.565226
4417.153467
4432.307132
4440.391821