# vtk DataFile Version 2.0
mfree iwf
ASCII

DATASET UNSTRUCTURED_GRID
POINTS 6231 float
0.000000 0.000300 0.000000
0.000000 0.000310 0.000000
0.000000 0.000320 0.000000
0.000000 0.000330 0.000000
0.000000 0.000340 0.000000
0.000000 0.000350 0.000000
0.000000 0.000360 0.000000
0.000001 0.000370 0.000000
0.000001 0.000380 0.000000
0.000001 0.000390 0.000000
0.000001 0.000400 0.000000
0.000001 0.000410 0.000000
0.000001 0.000420 0.000000
0.000001 0.000430 0.000000
0.000001 0.000440 0.000000
0.000002 0.000450 0.000000
0.000002 0.000460 0.000000
0.000002 0.000470 0.000000
0.000002 0.000480 0.000000
0.000002 0.000492 0.000000
0.000006 0.000501 0.000000
0.000709 0.000906 0.000000
0.000777 0.000951 0.000000
0.000725 0.000916 0.000000
0.000789 0.000958 0.000000
0.000810 0.000966 0.000000
0.000858 0.000976 0.000000
0.000866 0.000975 0.000000
0.000879 0.000972 0.000000
0.000892 0.000971 0.000000
0.000923 0.000975 0.000000
0.000010 0.000300 0.000000
0.000010 0.000310 0.000000
0.000010 0.000320 0.000000
0.000010 0.000330 0.000000
0.000010 0.000340 0.000000
0.000010 0.000350 0.000000
0.000010 0.000360 0.000000
0.000011 0.000370 0.000000
0.000011 0.000380 0.000000
0.000011 0.000390 0.000000
0.000011 0.000400 0.000000
0.000011 0.000410 0.000000
0.000011 0.000420 0.000000
0.000011 0.000430 0.000000
0.000011 0.000440 0.000000
0.000011 0.000450 0.000000
0.000012 0.000460 0.000000
0.000011 0.000472 0.000000
0.000013 0.000478 0.000000
0.000009 0.000492 0.000000
0.000013 0.000498 0.000000
0.000829 0.000965 0.000000
0.000844 0.000968 0.000000
0.000852 0.000969 0.000000
0.000858 0.000968 0.000000
0.000875 0.000964 0.000000
0.000886 0.000963 0.000000
0.000901 0.000961 0.000000
0.000911 0.000964 0.000000
0.000918 0.000962 0.000000
0.000920 0.000970 0.000000
0.000020 0.000300 0.000000
0.000020 0.000310 0.000000
0.000020 0.000320 0.000000
0.000020 0.000330 0.000000
0.000020 0.000340 0.000000
0.000020 0.000350 0.000000
0.000020 0.000360 0.000000
0.000021 0.000370 0.000000
0.000020 0.000380 0.000000
0.000021 0.000390 0.000000
0.000021 0.000400 0.000000
0.000022 0.000410 0.000000
0.000021 0.000420 0.000000
0.000022 0.000430 0.000000
0.000020 0.000440 0.000000
0.000023 0.000451 0.000000
0.000021 0.000460 0.000000
0.000022 0.000470 0.000000
0.000021 0.000481 0.000000
0.000024 0.000494 0.000000
0.000020 0.000497 0.000000
0.000798 0.000950 0.000000
0.000826 0.000960 0.000000
0.000836 0.000963 0.000000
0.000841 0.000961 0.000000
0.000851 0.000955 0.000000
0.000866 0.000960 0.000000
0.000893 0.000957 0.000000
0.000908 0.000959 0.000000
0.000916 0.000951 0.000000
0.000924 0.000949 0.000000
0.000030 0.000300 0.000000
0.000030 0.000310 0.000000
0.000030 0.000320 0.000000
0.000031 0.000330 0.000000
0.000030 0.000340 0.000000
0.000030 0.000350 0.000000
0.000031 0.000360 0.000000
0.000030 0.000370 0.000000
0.000031 0.000380 0.000000
0.000031 0.000390 0.000000
0.000031 0.000400 0.000000
0.000031 0.000411 0.000000
0.000031 0.000420 0.000000
0.000032 0.000430 0.000000
0.000031 0.000440 0.000000
0.000031 0.000450 0.000000
0.000031 0.000459 0.000000
0.000036 0.000473 0.000000
0.000029 0.000478 0.000000
0.000033 0.000488 0.000000
0.000032 0.000497 0.000000
0.000063 0.000500 0.000000
0.000818 0.000954 0.000000
0.000835 0.000947 0.000000
0.000862 0.000952 0.000000
0.000872 0.000945 0.000000
0.000877 0.000956 0.000000
0.000882 0.000950 0.000000
0.000893 0.000948 0.000000
0.000900 0.000948 0.000000
0.000923 0.000941 0.000000
0.000040 0.000300 0.000000
0.000040 0.000310 0.000000
0.000041 0.000320 0.000000
0.000040 0.000329 0.000000
0.000040 0.000340 0.000000
0.000041 0.000351 0.000000
0.000041 0.000359 0.000000
0.000040 0.000370 0.000000
0.000041 0.000380 0.000000
0.000040 0.000390 0.000000
0.000042 0.000399 0.000000
0.000040 0.000410 0.000000
0.000042 0.000419 0.000000
0.000040 0.000431 0.000000
0.000042 0.000439 0.000000
0.000043 0.000450 0.000000
0.000042 0.000460 0.000000
0.000037 0.000469 0.000000
0.000045 0.000477 0.000000
0.000043 0.000496 0.000000
0.000040 0.000498 0.000000
0.000630 0.000750 0.000000
0.000827 0.000946 0.000000
0.000846 0.000947 0.000000
0.000853 0.000942 0.000000
0.000861 0.000949 0.000000
0.000882 0.000941 0.000000
0.000905 0.000938 0.000000
0.000904 0.000928 0.000000
0.000913 0.000942 0.000000
0.000922 0.000932 0.000000
0.000050 0.000300 0.000000
0.000050 0.000310 0.000000
0.000050 0.000319 0.000000
0.000049 0.000331 0.000000
0.000051 0.000340 0.000000
0.000050 0.000348 0.000000
0.000050 0.000361 0.000000
0.000051 0.000371 0.000000
0.000051 0.000379 0.000000
0.000050 0.000390 0.000000
0.000052 0.000399 0.000000
0.000049 0.000411 0.000000
0.000053 0.000420 0.000000
0.000051 0.000430 0.000000
0.000053 0.000440 0.000000
0.000047 0.000450 0.000000
0.000054 0.000458 0.000000
0.000053 0.000470 0.000000
0.000056 0.000482 0.000000
0.000048 0.000488 0.000000
0.000050 0.000498 0.000000
0.000815 0.000960 0.000000
0.000773 0.000942 0.000000
0.000841 0.000941 0.000000
0.000857 0.000931 0.000000
0.000871 0.000935 0.000000
0.000887 0.000934 0.000000
0.000879 0.000929 0.000000
0.000896 0.000936 0.000000
0.000912 0.000930 0.000000
0.000919 0.000921 0.000000
0.000060 0.000300 0.000000
0.000060 0.000310 0.000000
0.000060 0.000321 0.000000
0.000061 0.000329 0.000000
0.000060 0.000339 0.000000
0.000059 0.000352 0.000000
0.000062 0.000358 0.000000
0.000059 0.000368 0.000000
0.000061 0.000380 0.000000
0.000060 0.000391 0.000000
0.000063 0.000400 0.000000
0.000060 0.000409 0.000000
0.000063 0.000418 0.000000
0.000058 0.000430 0.000000
0.000065 0.000439 0.000000
0.000060 0.000450 0.000000
0.000065 0.000460 0.000000
0.000055 0.000472 0.000000
0.000064 0.000475 0.000000
0.000068 0.000486 0.000000
0.000058 0.000496 0.000000
0.000805 0.000958 0.000000
0.000818 0.000945 0.000000
0.000836 0.000929 0.000000
0.000848 0.000931 0.000000
0.000865 0.000923 0.000000
0.000872 0.000917 0.000000
0.000900 0.000918 0.000000
0.000890 0.000925 0.000000
0.000909 0.000918 0.000000
0.000918 0.000912 0.000000
0.000070 0.000300 0.000000
0.000070 0.000310 0.000000
0.000070 0.000320 0.000000
0.000070 0.000330 0.000000
0.000071 0.000341 0.000000
0.000070 0.000349 0.000000
0.000072 0.000359 0.000000
0.000068 0.000374 0.000000
0.000080 0.000375 0.000000
0.000069 0.000389 0.000000
0.000073 0.000400 0.000000
0.000069 0.000412 0.000000
0.000074 0.000421 0.000000
0.000069 0.000430 0.000000
0.000075 0.000439 0.000000
0.000066 0.000451 0.000000
0.000077 0.000459 0.000000
0.000073 0.000470 0.000000
0.000076 0.000485 0.000000
0.000068 0.000495 0.000000
0.000076 0.000496 0.000000
0.000624 0.000727 0.000000
0.000807 0.000944 0.000000
0.000829 0.000935 0.000000
0.000849 0.000914 0.000000
0.000866 0.000933 0.000000
0.000881 0.000917 0.000000
0.000890 0.000917 0.000000
0.000886 0.000906 0.000000
0.000906 0.000909 0.000000
0.000915 0.000902 0.000000
0.000080 0.000300 0.000000
0.000080 0.000310 0.000000
0.000080 0.000320 0.000000
0.000079 0.000330 0.000000
0.000081 0.000340 0.000000
0.000080 0.000351 0.000000
0.000082 0.000363 0.000000
0.000074 0.000369 0.000000
0.000077 0.000383 0.000000
0.000079 0.000392 0.000000
0.000088 0.000396 0.000000
0.000079 0.000409 0.000000
0.000085 0.000417 0.000000
0.000079 0.000430 0.000000
0.000087 0.000444 0.000000
0.000077 0.000447 0.000000
0.000086 0.000463 0.000000
0.000074 0.000470 0.000000
0.000087 0.000473 0.000000
0.000085 0.000482 0.000000
0.000084 0.000495 0.000000
0.000795 0.000955 0.000000
0.000767 0.000946 0.000000
0.000834 0.000917 0.000000
0.000845 0.000927 0.000000
0.000859 0.000916 0.000000
0.000865 0.000907 0.000000
0.000876 0.000908 0.000000
0.000896 0.000905 0.000000
0.000904 0.000899 0.000000
0.000913 0.000892 0.000000
0.000090 0.000300 0.000000
0.000090 0.000310 0.000000
0.000090 0.000320 0.000000
0.000090 0.000330 0.000000
0.000090 0.000339 0.000000
0.000090 0.000350 0.000000
0.000091 0.000358 0.000000
0.000091 0.000369 0.000000
0.000091 0.000380 0.000000
0.000091 0.000388 0.000000
0.000085 0.000405 0.000000
0.000093 0.000409 0.000000
0.000088 0.000426 0.000000
0.000096 0.000424 0.000000
0.000088 0.000435 0.000000
0.000097 0.000456 0.000000
0.000087 0.000453 0.000000
0.000097 0.000471 0.000000
0.000106 0.000480 0.000000
0.000089 0.000494 0.000000
0.000094 0.000495 0.000000
0.000635 0.000767 0.000000
0.000801 0.000939 0.000000
0.000789 0.000944 0.000000
0.000820 0.000936 0.000000
0.000846 0.000905 0.000000
0.000871 0.000898 0.000000
0.000885 0.000899 0.000000
0.000892 0.000894 0.000000
0.000901 0.000890 0.000000
0.000909 0.000883 0.000000
0.000100 0.000300 0.000000
0.000100 0.000310 0.000000
0.000100 0.000320 0.000000
0.000100 0.000330 0.000000
0.000100 0.000340 0.000000
0.000101 0.000350 0.000000
0.000100 0.000361 0.000000
0.000100 0.000371 0.000000
0.000101 0.000380 0.000000
0.000100 0.000391 0.000000
0.000100 0.000400 0.000000
0.000103 0.000407 0.000000
0.000100 0.000418 0.000000
0.000100 0.000436 0.000000
0.000110 0.000443 0.000000
0.000097 0.000445 0.000000
0.000108 0.000460 0.000000
0.000098 0.000467 0.000000
0.000095 0.000481 0.000000
0.000106 0.000491 0.000000
0.000101 0.000494 0.000000
0.000730 0.000920 0.000000
0.000738 0.000926 0.000000
0.000762 0.000943 0.000000
0.000846 0.000915 0.000000
0.000860 0.000904 0.000000
0.000861 0.000894 0.000000
0.000882 0.000890 0.000000
0.000874 0.000885 0.000000
0.000897 0.000883 0.000000
0.000906 0.000874 0.000000
0.000110 0.000300 0.000000
0.000110 0.000310 0.000000
0.000110 0.000321 0.000000
0.000110 0.000329 0.000000
0.000111 0.000340 0.000000
0.000110 0.000350 0.000000
0.000110 0.000359 0.000000
0.000113 0.000368 0.000000
0.000110 0.000379 0.000000
0.000111 0.000390 0.000000
0.000112 0.000399 0.000000
0.000110 0.000414 0.000000
0.000116 0.000422 0.000000
0.000107 0.000427 0.000000
0.000111 0.000433 0.000000
0.000106 0.000449 0.000000
0.000115 0.000461 0.000000
0.000111 0.000470 0.000000
0.000116 0.000480 0.000000
0.000111 0.000493 0.000000
0.000119 0.000491 0.000000
0.000682 0.000868 0.000000
0.000641 0.000788 0.000000
0.000796 0.000934 0.000000
0.000818 0.000923 0.000000
0.000809 0.000920 0.000000
[...]
POINT_DATA 6231
SCALARS density float 1
LOOKUP_TABLE default
4415.803594
4425.470693
4423.070005
4425.445417
4424.752190
4423.789148
4422.670390
4423.090338
4428.408351
4429.582389
4426.520921
4430.791453
4428.015193
4429.746956
4431.222617
4439.695982
4423.645790
4432.908771
4412.831776
4424.193143
4411.241292
4422.347367
4427.536966
4431.457707
4441.340689
4421.131817
4397.718502
4430.520752
4450.408686
4452.900414
4418.054331
4416.881137
4421.891172
4428.367618
4426.732466
4420.330159
4431.047522
4432.551814
4434.532407
4428.440552
4429.297322
4425.092513
4433.400489
4426.537661
4437.317866
4416.909268
4427.168012
4410.210576
4442.672042
4461.459861
4460.306674
4416.065874
4409.323983
4414.682820
4435.525062
4506.027084
4390.562824
4399.348767
4426.318176
4402.611712
4456.318145
4442.981671
4419.596434
4432.330361
4427.889896
4421.871479
4435.358872
4427.319389
4412.659479
4429.134587
4415.837955
4433.652019
4429.810315
4430.658622
4419.509616
4437.860188
4415.969805
4476.086334
4400.071073
4454.151260
4351.694246
4450.558433
4421.062279
4420.585393
4427.293872
4412.108152
4507.313009
4327.938772
4367.524024
4416.127830
4420.578503
4422.623080
4399.333680
4430.357431
4428.235298
4420.803933
4434.156162
4432.863130
4428.805813
4436.584197
4440.641833
4428.074049
4437.687896
4407.206661
4441.941311
4421.008037
4444.819908
4405.791252
4428.808522
4393.833536
4455.946980
4369.782748
4553.424230
4372.016499
4430.357675
4455.237476
4436.432598
4484.396693
4342.132337
4491.676068
4467.290948
4407.163077
4479.142192
4439.072219
4427.500107
4425.375481
4436.881826
4439.523644
4417.522379
4438.051326
4431.317456
4418.361516
4420.175705
4432.706082
4419.765350
4448.213098
4405.863027
4442.914435
4419.701002
4450.178689
4392.812741
4505.529889
4311.458420
4419.354947
4384.300870
4439.453672
4418.589271
4431.416298
4421.611110
4480.248498
4423.554685
4405.738419
4487.832262
4441.226060
4414.101728
4427.219480
4436.019224
4423.675722
4421.810229
4443.753087
4437.535267
4413.234966
4458.000033
4431.070115
4428.837802
4428.234965
4426.710447
4421.629857
4449.310463
4372.306492
4479.890216
4361.725251
4470.363359
4357.555867
4538.105716
4382.140033
4444.964474
4428.100744
4445.963729
4408.849039
4441.266078
4447.755674
4392.301774
4402.284213
4416.974837
4416.295995
4434.961522
4434.938555
4421.475212
4446.888602
4424.373699
4428.228819
4430.254512
4424.696920
4395.363794
4440.868401
4422.414779
4438.083369
4416.773688
4436.096683
4424.302208
4460.887669
4405.082712
4517.224877
4383.064936
4483.304896
4432.299753
4417.154428
4398.667342
4416.648459
4460.777780
4467.257629
4423.852526
4404.032175
4418.276600
4424.177582
4426.713445
4425.476123
4423.743645
4426.055450
4431.287268
4412.128038
4447.833064
4415.552088
4425.098057
4418.573437
4452.753569
4386.206595
4435.050165
4409.861700
4436.273742
4429.437453
4453.339863
4442.649980
4448.324891
4447.926836
4411.556462
4390.970556
4439.964097
4452.425476
4436.044050
4450.710755
4433.938145
4428.023655
4453.647457
4444.703549
4448.327420
4412.098184
4424.945706
4434.976363
4429.511541
4411.327929
4431.612632
4429.327922
4416.088904
4458.849687
4419.739702
4430.216569
4412.102292
4441.663710
4410.591802
4443.342401
4464.736949
4389.733908
4457.071124
4447.624999
4368.073192
4461.971736
4414.784211
4434.707900
4415.757494
4412.240454
4440.610980
4370.890569
4473.166214
4420.697225
4402.962497
4435.233588
4437.215962
4429.874683
4429.718596
4418.751751
4433.514563
4429.221983
4419.296850
4448.593655
4433.228737
4428.999545
4441.782795
4449.861467
4397.054824
4427.684996
4447.704493
4415.519773
4377.127126
4439.151476
4434.813378
4423.120340
4425.853370
4416.279372
4427.608443
4430.333871
4425.339259
4475.680886
4401.364427
4392.306332
4441.306948
4434.864566
4431.967383
4414.463783
4426.168549
4424.755234
4435.572959
4434.463867
4420.963910
4433.841120
4420.391289
4423.740895
4437.452973
4408.347254
4436.924597
4449.923422
4437.259920
4389.941406
4439.952033
4450.456668
4422.569180
4463.971870
4414.550123
4439.641132
4420.458074
4423.477836
4430.856844
4422.354687
4442.109797
4455.686803
4370.863920
4406.135997
4472.162682
4453.302423
4421.036956
4427.498833
4436.637644
4430.714290
4418.534179
4432.558745
4437.595474
4428.460732
4437.017769
4424.494790
4436.052587
4417.198129
4416.788744
4404.135415
4446.502794
4431.713008
4439.550605
4462.112967
4393.293365
4464.448306
4399.279533
4409.178740
4436.974543
4435.902350
4437.844530
4400.816589
4438.845490
4465.522680
4454.960076
4407.714246
4423.872096
4454.099225
4435.141036
4429.518680
4418.620073
4441.735075
4430.331706
4415.175247
4419.647166
4436.835526
4402.233460
4441.658592
4411.708547
4430.340753
4466.781073
4434.857042
4432.973332
4383.551690
4448.376512
4409.543320
4425.257862
4431.572318
4386.726675
4440.327908
4421.565749
4430.816339
4450.674520
4453.149755
4421.954410
4339.513283
4459.471860
4389.841778
4416.558548
4431.332209
4436.206366
4429.965723
4433.997498
4414.504025
4443.425105
4438.729541
4429.756128
4423.954840
4432.177469
4431.051298
4393.673286
4426.162895
4418.512101
4417.927849
4440.919987
4408.260074
4436.276914
4515.213969
4415.557563
4440.054704
4434.949653
4420.081769
4420.970207
4434.539328
4427.389455
4442.677945
4474.004184
4473.668884
4492.388711
4452.324013
4432.929256
4436.062351
4428.215732
4422.230316
4433.878694
4420.942835
4419.984767
4417.134891
4439.946337
4405.049004
4433.975220
4443.279220
4446.748408
4424.015415
4448.449237
4375.835472
4430.847177
4498.862418
4558.616607
4382.005457
4378.582591
4411.948401
4419.619838
4445.614319
4446.635523
4380.771621
4456.370880
4409.244435
4401.330202
4404.200737
4449.296068
4433.355793
4431.721246
4432.268366
4433.685091
4430.479756
4416.090452
4433.065294
4444.713127
4421.770868
4416.986024
4450.256421
4401.946182
4442.992710
4381.470997
4471.360689
4400.074357
4500.334830
4349.080333
4320.265353
4478.394527
4398.636662
4412.138839
4438.216334
4433.495824
4490.218752
4443.818532
4418.471318
4440.463924
4393.092645
4426.610580
4412.178460
4431.909488
4429.447206
4433.559699
4420.265612
4433.260530
4430.383357
4408.103030
4410.551645
4393.160283
4449.274310
4436.918673
4412.534472
4449.760659
4419.934356
4419.013344
4456.798803
4397.516558
4481.916355
4484.890842
4419.295376
4404.475241
4424.386537
4452.563944
4411.753139
4378.292355
4458.554134
4449.302788
4420.662181
4402.167346
4431.148434
4429.011356
4433.895547
4428.702795
4432.071853
4435.738052
4432.992794
4425.179169
4433.503593
4437.289435
4431.832668
4420.384377
4436.676556
4431.648154
4423.692778
4447.362214
4435.950917
4423.856660
4397.690474
4489.982317
4358.371591
4366.816256
4428.043730
4424.291796
4438.649727
4445.304587
4401.219868
4437.913826
4428.538769
4439.668738
4468.152068
4438.307371
4438.906163
4432.224700
4429.515930
4428.415889
4436.998784
4426.315178
4429.271814
4425.771424
4407.862079
4442.086673
4447.035371
4404.166671
4435.481950
4406.600544
4431.137702
4385.554279
4467.188406
4351.765688
4466.627914
4397.741672
4448.347945
4394.794990
4429.919229
4430.483683
4443.232622
4460.016222
4401.266378
4460.453721
4454.082305
4412.889409
4409.292703
4422.416816
4431.323668
4425.986035
4430.628482
4420.770618
4437.449242
4436.156265
4428.558225
4447.055656
4408.175612
4416.314163
4425.030698
4446.094912
4424.997411
4437.005848
4443.445394
4450.185010
4381.493095
4450.228051
4430.100802
4569.733792
4375.608766
4472.363034
4422.872056
4439.185048
4432.605714
4387.399463
4453.786093
4401.771315
4406.821449
4425.722727
4414.272202
4431.284645
4430.870676
4436.462583
4430.692100
4424.600417
4426.289571
4413.170366
4433.814075
4429.430448
4424.250134
4431.885271
4418.017476
4407.475658
4430.186718
4410.301153
4462.458464
4451.305341
4464.517226
4373.925035
4380.209817
4431.057133
4410.599683
4423.034967
4462.807685
4419.715106
4397.350039
4420.623815
4441.894661
4461.723738
4408.906847
4406.437357
4433.984140
4431.577356
4422.509891
4432.757079
4427.119963
4441.805891
4430.102368
4420.434954
4421.517472
4436.422562
4410.021985
4439.807762
4447.235288
4429.804778
4399.082108
4453.017355
4420.469830
4442.615092
4401.345823
4462.635983
4412.978397
4444.655801
4414.507666
4419.016767
4439.440526
4415.054472
4400.736909
4448.104053
4359.248608
4423.150635
4446.398654
4428.800650
4429.267158
4432.177925
4439.293509
4419.748599
4414.666139
4426.000836
4446.013141
4411.243353
4433.157602
4426.589067
4418.584102
4457.890478
4397.607877
4406.049877
4467.921136
4378.063034
4395.806242
4437.724985
4446.453481
4421.919172
4424.032451
4432.572096
4459.422699
4407.161532
4445.307278
4471.031367
4374.511626
4471.352376
4369.365053
4425.086717
4428.193122
4432.071161
4430.281313
4419.099547
4430.005166
4452.273904
4418.477786
4412.871144
4418.123191
4445.980843
4400.253666
4435.180734
4429.999830
4432.822695
4442.585871
4405.358350
4445.095287
4427.997242
4402.722098
4442.816052
4422.900348
4418.028035
4468.450836
4419.643238
4436.195731
4459.790464
4438.088024
4363.360945
4439.630684
4422.803701
4453.309936
4427.677706
4426.975733
4424.716397
4433.929704
4426.863740
4406.897248
4429.260941
4435.299228
4424.752102
4423.285707
4430.394818
4440.170787
4412.851696
4414.480565
4403.110166
4429.968826
4396.600706
4466.140239
4435.979295
4490.681595
4409.714679
4415.266676
4452.399488
4419.438647
4443.655021
4437.491915
4463.563122
4422.923604
4459.347758
4430.945490
4438.720403
4428.673039
4434.643852
4429.139193
4429.792624
4426.267215
4431.593447
4434.378768
4399.566752
4431.614520
4427.476459
4429.155895
4425.197859
4431.832675
4422.234679
4447.017041
4456.686935
4401.605084
4455.168278
4361.710049
4418.332441
4429.730370
4408.147574
4456.591096
4447.655852
4417.989877
4418.741239
4423.736613
4422.247661
4405.840404
4418.596317
4416.513542
4429.601990
4433.483478
4420.093294
4429.804516
4419.829970
4431.449586
4409.429946
4441.034064
4437.551625
4413.969421
4414.626784
4449.129402
4399.921026
4429.066084
4411.790008
4429.419940
4421.944888
4469.463459
4410.896538
4448.992898
4419.725566
4498.949311
4426.739692
4367.888435
4421.939919
4439.695219
4419.320407
4444.310594
4492.618752
4422.787034
4447.564396
4430.875583
4428.556180
4428.412749
4442.517760
4425.305440
4432.010734
4425.010066
4435.002442
4389.329976
4445.080621
4428.800405
4423.082922
4410.942384
4448.866103
4412.982029
4469.436053
4399.268535
4475.693900
4400.731477
4432.768385
4414.179535
4422.925667
4429.950094
4431.137036
4417.217533
4437.416193
4415.729989
4432.837539
4387.795619
4382.560273
4431.220804
4426.623741
4432.010955
4429.542606
4420.123950
4424.700891
4445.944165
4416.731984
4421.473424
4439.474852
4439.173498
4397.841180
4439.542241
4433.096388
4437.552608
4425.455374
4423.853630
4403.971812
4451.560020
4425.826088
4431.363210
4408.657640
4430.145261
4420.063450
4425.969489
4491.316261
4392.569522
4414.945159
4437.764863
4385.801942
4435.678059
4407.943693
4426.184336
4430.631356
4423.449094
4437.358770
4448.774256
4406.078605
4435.045776
4438.516999
4399.017920
4417.624617
4438.640166
4433.053666
4424.896166
4398.860418
4449.441473
4437.896317
4399.902832
4368.892888
4388.414059
4464.706829
4443.567668
4410.380404
4402.728994
4399.886381
4448.257490
4429.638337
4435.956611
4467.118641
4455.068151
4437.412227
4461.932452
4431.918584
4432.232252
4430.235141
4422.077722
4419.432043
4442.139722
4435.326206
4411.732362
4441.474143
4421.838913
4434.477558
4397.200736
4456.614163
4438.865092
4406.730246
4436.845082
4403.928546
4493.926832
4457.277652
4437.947605
4445.482326
4421.584235
4449.052681
4421.060564
4439.975659
4436.096251
4423.444019
4433.710997
4425.870343
4396.158030
4416.486612
4429.078173
4429.464408
4435.752243
4438.335891
4433.179345
4432.671686
4415.164916
4425.641755
4452.169326
4401.263527
4434.991234
4445.418147
4415.988100
4427.321035
4438.759418
4447.928468
4386.819319
4446.945765
4390.437959
4368.445494
4432.441756
4435.563354
4422.700086
4393.084090
4473.588307
4381.865640
4422.414871
4418.398271
4464.285872
4369.191906
4420.863671
4435.684574
4431.836332
4424.218869
4421.229470
4431.616653
4421.450411
4439.460206
4437.333364
4392.252244
4454.762519
4428.247776
4421.301705
4422.391051
4444.244106
4407.701339
4450.593372
4412.237526
4388.002905
4474.467951
4468.549300
4448.498029
4400.686947
4404.307403
4432.106430
4446.720179
4430.026494
4372.319175
4457.222920
4423.904479
4456.012566
4423.547285
4437.026634
4430.871954
4436.964309
4434.643027
4421.964123
4443.685474
4397.838263
4423.887640
4430.536305
4434.241555
4391.803684
4455.677336
4429.580374
4439.819698
4415.268136
4423.418240
4440.537660
4463.898094
4340.051174
4473.733847
4457.986539
4423.541850
4493.587833
4431.976603
4452.597155
4462.406748
4446.226239
4428.134699
4394.529211
4406.686868
4437.898283
4436.650216
4425.019761
4420.030408
4420.493224
4418.720701
4437.893277
4408.876964
4454.760948
4394.168140
4430.219101
4418.250084
4436.791678
4399.743622
4433.355066
4401.358003
4439.955355
4387.579391
4441.021763
4316.528340
4500.133039
4476.631769
4424.150234
4407.112850
4523.365795
4381.774268
4443.241504
4390.763629
4466.826263
4358.483248
4427.786086
4440.504858
4429.728853
4436.192412
4432.376597
4434.859777
4436.560943
4429.098062
4435.842283
4409.371628
4426.111970
4439.453831
4406.831340
4417.852437
4411.111843
4448.614020
4404.921980
4463.163959
4373.032832
4477.276283
4459.397433
4507.374917
4422.868795
4418.763684
4362.396588
4425.415334
4414.778010
4430.149785
4458.347755
4467.405908
4446.657944
4379.099383
4453.916180
4421.501684
4425.313188
4437.130753
4410.916861
4432.037539
4423.032588
4430.913391
4421.957543
4431.329007
4412.782058
4426.940705
4446.330674
4411.620256
4435.911307
4416.113102
4433.782701
4430.240281
4447.993477
4441.811979
4503.979488
4581.488733
4421.787806
4497.657105
4415.217625
4417.007483
4469.914146
4391.969697
4414.174243
4445.676003
4433.361482
4416.688007
4428.395487
4427.671649
4425.566257
4436.037326
4418.255528
4429.431830
4437.512724
4434.401229
4422.424469
4453.634400
4439.624941
4433.134722
4407.982473
4431.574359
4425.398086
4428.946289
4431.797730
4401.162040
4414.540673
4427.302023
4389.666056
4415.274419
4416.112265
4409.674631
4431.616585
4457.008617
4367.026912
4367.156905
4498.222040
4466.597405
4415.733255
4420.909838
4434.147894
4414.764594
4419.593375
4413.226197
4440.605491
4404.065425
4419.883047
4442.924301
4389.604303
4412.196341
4435.455640
4432.781202
4445.098082
4416.182453
4453.735716
4379.020521
4448.943741
4447.393659
4454.225065
4427.383155
4478.079085
4422.023149
4423.462149
4423.127796
4462.455251
4477.192626
4436.092530
4372.037229
4434.175743
4396.313297
4423.636834
4433.815060
4421.486946
4443.237273
4434.228226
4410.356877
4441.505294
4439.946256
4405.509350
4454.618754
4449.525062
4421.516417
4406.065054
4406.019108
4433.093775
4419.199750
4445.428140
4369.512893
4440.648401
4478.286800
4420.287021
4438.632781
4420.949216
4420.932068
4471.391521
4456.865557
4418.266836
4535.290724
4368.067728
4443.309060
4420.716420
4428.422535
4430.175651
4422.224765
4424.566826
4423.747469
4426.295644
4415.275406
4430.682759
4439.526486
4434.899373
4378.832715
4398.908113
4424.711827
4417.867321
4415.978979
4432.404609
4391.907506
4415.803511
4426.211752
4459.062148
4434.489031
4391.830090
4443.799130
4441.009164
4474.256607
4435.250808
4468.950979
4417.297697
4351.622493
4394.958261
4419.966511
4423.721000
4417.502071
4434.583897
4424.583021
4431.017531
4434.398030
4423.369898
4428.158984
4427.065270
4413.216362
4425.357844
4462.184546
4413.252333
4418.720300
4425.590357
4434.277089
4477.538260
4391.962941
4421.077020
4441.531036
4416.124374
4422.904829
4471.264968
4377.752680
4371.526861
4485.359520
4417.459685
4391.544133
4456.565451
4468.418096
4414.689479
4428.319280
4420.049504
4429.179897
4418.133357
4438.319503
4406.191865
4434.658736
4407.294784
4418.547045
4434.663854
4409.425198
4427.221276
4429.408113
4442.793371
4398.209443
4448.541961
4383.303772
4421.679940
4358.368245
4427.984852
4428.210206
4462.982628
4386.421204
4459.454918
4434.048554
4446.907226
4392.912142
4389.376786
4473.474515
4356.491191
4418.087291
4422.297939
4421.144394
4435.112612
4418.042501
4426.594016
4440.738444
4446.990373
4424.967295
4446.984721
4416.229741
4414.064327
4417.797218
4448.756755
4404.808911
4430.783443
4422.098649
4395.829357
4456.007840
4449.492440
4465.510178
4433.508923
4406.573145
4466.160553
4415.159486
4477.894934
4462.017400
4460.470527
4470.055683
4457.015585
4410.806300
4412.550417
4423.543012
4426.337584
4426.784598
4419.948967
4432.489654
4399.307471
4423.176784
4434.997873
4414.824495
4418.176833
4426.470319
4452.549019
4383.002840
4444.889727
4428.280174
4392.276479
4413.869696
4422.278381
4390.101494
4460.425606
4448.824925
4432.522449
4354.566044
4449.000688
4416.429193
4382.896617
4459.095860
4402.600218
4451.555033
4429.379623
4406.779353
4424.066978
4424.177832
4432.699694
4409.811998
4442.404218
4425.216358
4430.607872
4400.980462
4408.710647
4452.540172
4429.480758
4420.078156
4431.020101
4447.099775
4461.072640
4449.291261
4390.569196
4456.261773
4396.753928
4439.045277
4413.326722
4395.095729
4435.449238
4418.124548
4451.694055
4436.571963
4420.338441
4396.407277
4441.458195
4384.369273
4466.026883
4425.533929
4427.620147
4433.280861
4429.269406
4410.796685
4447.645943
4428.999406
4428.910873
4410.512944
4443.065148
4430.028496
4420.860291
4400.822493
4410.594265
4412.485456
4448.762350
4430.623402
4473.773535
4428.008599
4345.496468
4405.189500
4464.871671
4441.110680
4410.744380
4450.608062
4443.566145
4451.901772
4355.670837
4428.815976
4413.262985
4363.562221
4434.756107
4432.349412
4415.783575
4427.691974
4429.962018
4409.492734
4419.924757
4435.869562
4419.136103
4412.663197
4421.416256
4427.426576
4421.741105
4452.858835
4423.973515
4403.129317
4453.851136
4428.924768
4378.538382
4534.076758
4383.641784
4427.028770
4507.673024
4425.869250
4439.794024
4419.692109
4450.223153
4458.246974
4480.572912
4397.872868
4433.474766
4427.917656
4431.647042
4433.950390
4433.637970
4409.872588
4430.392432
4410.305491
4423.905725
4408.423840
4425.305958
4421.201040
4409.687252
4408.985023
4430.075838
4426.521035
4434.131951
4462.636432
4450.927104
4402.424668
4428.013045
4499.018302
4502.365034
4454.782420
4417.487429
4468.649691
4430.961412
4397.045427
4449.258242
4466.216227
4438.557627
4482.647171
4428.262247
4436.654397
4425.280634
4431.291594
4425.143764
4436.498140
4440.715991
4417.814373
4397.405352
4434.865295
4440.818665
4432.186257
4432.744004
4430.268816
4413.458594
4440.694937
4404.102486
4405.173124
4433.188308
4447.190757
4704.836127
4497.258677
4446.487879
4475.668493
4466.714718
4461.165219
4439.875905
4388.873717
4351.667166
4346.862796
4377.904388
4430.347742
4440.796145
4406.433295
4427.951222
4433.782163
4418.496397
4425.837925
4434.570032
4438.328939
4429.745539
4418.125876
4411.990444
4432.614193
4414.665410
4437.072368
4421.745659
4427.066212
4454.341010
4404.998841
4435.699750
4447.693274
4408.302100
4450.425403
4420.128691
4458.551091
4440.162008
4431.371411
4429.130800
4475.199931
4427.240920
4448.630442
4428.986929
4415.817387
4441.750798
4427.268620
4407.057075
4439.490837
4413.008290
4416.309046
4418.729677
4434.825650
4428.703813
4458.613912
4417.651145
4418.265834
4430.116256
4424.788394
4436.401850
4421.085855
4385.748216
4402.655625
4431.074604
4474.171465
4455.014117
4449.464799
4389.446473
4422.858498
4428.294394
4400.252018
4457.177904
4401.559922
4418.699782
4435.622750
4422.954358
4428.433555
4449.365606
4440.626801
4403.868536
4441.069642
4403.122779
4434.773275
4420.232819
4420.198437
4424.452082
4415.430364
4447.134983
4419.692688
4445.442357
4441.660755
4471.732630
4476.209712
4380.356438
4435.838074
4428.414791
4459.292319
4374.179543
4436.919770
4468.873104
4402.101875
4455.655075
4417.976619
4416.158200
4387.150821
4420.942730
4435.277188
4412.492185
4394.384336
4434.958414
4425.227034
4462.078924
4437.430390
4420.947174
4421.262242
4442.443875
4412.175823
4427.211600
4426.128169
4407.681405
4424.343818
4406.920106
4457.428546