# vtk DataFile Version 2.0
mfree iwf
ASCII

DATASET UNSTRUCTURED_GRID
POINTS 6231 float
0.000000 0.000300 0.000000
0.000000 0.000310 0.000000
0.000000 0.000320 0.000000
0.000000 0.000330 0.000000
0.000000 0.000340 0.000000
0.000001 0.000351 0.000000
0.000001 0.000361 0.000000
0.000001 0.000371 0.000000
0.000001 0.000381 0.000000
0.000001 0.000391 0.000000
0.000001 0.000401 0.000000
0.000001 0.000411 0.000000
0.000001 0.000421 0.000000
0.000001 0.000431 0.000000
0.000002 0.000441 0.000000
0.000002 0.000451 0.000000
0.000002 0.000461 0.000000
0.000002 0.000471 0.000000
0.000003 0.000481 0.000000
0.000002 0.000492 0.000000
0.000006 0.000501 0.000000
0.000039 0.000512 0.000000
0.000040 0.000527 0.000000
0.000040 0.000534 0.000000
0.000040 0.000547 0.000000
0.000040 0.000554 0.000000
0.000040 0.000565 0.000000
0.000040 0.000575 0.000000
0.000040 0.000586 0.000000
0.000039 0.000599 0.000000
0.000040 0.000629 0.000000
0.000010 0.000300 0.000000
0.000010 0.000310 0.000000
0.000010 0.000320 0.000000
0.000010 0.000330 0.000000
0.000010 0.000340 0.000000
0.000011 0.000351 0.000000
0.000011 0.000360 0.000000
0.000011 0.000370 0.000000
0.000011 0.000381 0.000000
0.000011 0.000391 0.000000
0.000011 0.000401 0.000000
0.000011 0.000411 0.000000
0.000011 0.000421 0.000000
0.000011 0.000431 0.000000
0.000012 0.000441 0.000000
0.000012 0.000451 0.000000
0.000012 0.000460 0.000000
0.000011 0.000471 0.000000
0.000014 0.000480 0.000000
0.000010 0.000492 0.000000
0.000013 0.000498 0.000000
0.000047 0.000518 0.000000
0.000047 0.000534 0.000000
0.000049 0.000545 0.000000
0.000049 0.000558 0.000000
0.000048 0.000570 0.000000
0.000048 0.000583 0.000000
0.000047 0.000595 0.000000
0.000045 0.000607 0.000000
0.000043 0.000614 0.000000
0.000040 0.000622 0.000000
0.000020 0.000300 0.000000
0.000020 0.000310 0.000000
0.000020 0.000320 0.000000
0.000020 0.000330 0.000000
0.000021 0.000340 0.000000
0.000020 0.000350 0.000000
0.000021 0.000360 0.000000
0.000021 0.000371 0.000000
0.000021 0.000380 0.000000
0.000020 0.000390 0.000000
0.000022 0.000401 0.000000
0.000021 0.000411 0.000000
0.000022 0.000420 0.000000
0.000021 0.000431 0.000000
0.000022 0.000440 0.000000
0.000021 0.000451 0.000000
0.000023 0.000460 0.000000
0.000021 0.000471 0.000000
0.000023 0.000480 0.000000
0.000025 0.000494 0.000000
0.000020 0.000498 0.000000
0.000053 0.000524 0.000000
0.000058 0.000526 0.000000
0.000056 0.000540 0.000000
0.000058 0.000552 0.000000
0.000056 0.000563 0.000000
0.000057 0.000575 0.000000
0.000055 0.000586 0.000000
0.000053 0.000602 0.000000
0.000051 0.000616 0.000000
0.000052 0.000625 0.000000
0.000030 0.000300 0.000000
0.000030 0.000310 0.000000
0.000030 0.000320 0.000000
0.000030 0.000330 0.000000
0.000031 0.000340 0.000000
0.000030 0.000351 0.000000
0.000031 0.000361 0.000000
0.000030 0.000370 0.000000
0.000031 0.000380 0.000000
0.000030 0.000391 0.000000
0.000032 0.000400 0.000000
0.000030 0.000411 0.000000
0.000033 0.000420 0.000000
0.000030 0.000431 0.000000
0.000033 0.000440 0.000000
0.000030 0.000451 0.000000
0.000034 0.000459 0.000000
0.000030 0.000472 0.000000
0.000034 0.000479 0.000000
0.000029 0.000490 0.000000
0.000033 0.000498 0.000000
0.000047 0.000505 0.000000
0.000065 0.000535 0.000000
0.000064 0.000546 0.000000
0.000066 0.000559 0.000000
0.000064 0.000571 0.000000
0.000064 0.000585 0.000000
0.000062 0.000594 0.000000
0.000061 0.000604 0.000000
0.000063 0.000614 0.000000
0.000062 0.000625 0.000000
0.000040 0.000300 0.000000
0.000040 0.000310 0.000000
0.000040 0.000320 0.000000
0.000040 0.000330 0.000000
0.000040 0.000340 0.000000
0.000041 0.000350 0.000000
0.000041 0.000360 0.000000
0.000040 0.000370 0.000000
0.000042 0.000381 0.000000
0.000040 0.000390 0.000000
0.000042 0.000400 0.000000
0.000041 0.000411 0.000000
0.000042 0.000420 0.000000
0.000040 0.000431 0.000000
0.000042 0.000440 0.000000
0.000041 0.000451 0.000000
0.000043 0.000461 0.000000
0.000041 0.000471 0.000000
0.000043 0.000480 0.000000
0.000043 0.000492 0.000000
0.000042 0.000499 0.000000
0.000056 0.000511 0.000000
0.000071 0.000531 0.000000
0.000074 0.000544 0.000000
0.000073 0.000557 0.000000
0.000073 0.000569 0.000000
0.000072 0.000580 0.000000
0.000072 0.000594 0.000000
0.000072 0.000605 0.000000
0.000071 0.000615 0.000000
0.000071 0.000625 0.000000
0.000050 0.000300 0.000000
0.000050 0.000310 0.000000
0.000050 0.000320 0.000000
0.000050 0.000330 0.000000
0.000050 0.000340 0.000000
0.000050 0.000350 0.000000
0.000050 0.000361 0.000000
0.000051 0.000370 0.000000
0.000050 0.000380 0.000000
0.000051 0.000390 0.000000
0.000051 0.000401 0.000000
0.000051 0.000410 0.000000
0.000051 0.000420 0.000000
0.000052 0.000430 0.000000
0.000051 0.000440 0.000000
0.000052 0.000450 0.000000
0.000052 0.000460 0.000000
0.000053 0.000470 0.000000
0.000050 0.000480 0.000000
0.000054 0.000488 0.000000
0.000055 0.000500 0.000000
0.000064 0.000516 0.000000
0.000071 0.000522 0.000000
0.000080 0.000545 0.000000
0.000081 0.000558 0.000000
0.000081 0.000573 0.000000
0.000080 0.000583 0.000000
0.000080 0.000593 0.000000
0.000081 0.000604 0.000000
0.000081 0.000615 0.000000
0.000081 0.000625 0.000000
0.000060 0.000300 0.000000
0.000060 0.000310 0.000000
0.000060 0.000320 0.000000
0.000060 0.000330 0.000000
0.000060 0.000340 0.000000
0.000061 0.000351 0.000000
0.000060 0.000360 0.000000
0.000061 0.000370 0.000000
0.000060 0.000381 0.000000
0.000062 0.000390 0.000000
0.000060 0.000400 0.000000
0.000061 0.000410 0.000000
0.000061 0.000421 0.000000
0.000061 0.000430 0.000000
0.000061 0.000440 0.000000
0.000062 0.000450 0.000000
0.000061 0.000460 0.000000
0.000063 0.000471 0.000000
0.000062 0.000480 0.000000
0.000063 0.000491 0.000000
0.000064 0.000501 0.000000
0.000070 0.000509 0.000000
0.000081 0.000531 0.000000
0.000088 0.000546 0.000000
0.000089 0.000557 0.000000
0.000089 0.000570 0.000000
0.000090 0.000583 0.000000
0.000090 0.000594 0.000000
0.000090 0.000605 0.000000
0.000090 0.000615 0.000000
0.000091 0.000625 0.000000
0.000070 0.000300 0.000000
0.000070 0.000310 0.000000
0.000070 0.000320 0.000000
0.000070 0.000330 0.000000
0.000071 0.000341 0.000000
0.000070 0.000350 0.000000
0.000070 0.000360 0.000000
0.000071 0.000371 0.000000
0.000071 0.000380 0.000000
0.000071 0.000390 0.000000
0.000071 0.000400 0.000000
0.000072 0.000411 0.000000
0.000071 0.000420 0.000000
0.000072 0.000430 0.000000
0.000071 0.000441 0.000000
0.000071 0.000450 0.000000
0.000072 0.000460 0.000000
0.000072 0.000470 0.000000
0.000072 0.000480 0.000000
0.000072 0.000490 0.000000
0.000075 0.000499 0.000000
0.000077 0.000513 0.000000
0.000084 0.000524 0.000000
0.000090 0.000535 0.000000
0.000097 0.000557 0.000000
0.000096 0.000570 0.000000
0.000098 0.000581 0.000000
0.000099 0.000592 0.000000
0.000099 0.000604 0.000000
0.000100 0.000614 0.000000
0.000101 0.000625 0.000000
0.000080 0.000300 0.000000
0.000080 0.000310 0.000000
0.000080 0.000320 0.000000
0.000081 0.000330 0.000000
0.000080 0.000340 0.000000
0.000080 0.000350 0.000000
0.000081 0.000361 0.000000
0.000080 0.000370 0.000000
0.000081 0.000380 0.000000
0.000081 0.000391 0.000000
0.000081 0.000400 0.000000
0.000081 0.000410 0.000000
0.000081 0.000420 0.000000
0.000082 0.000431 0.000000
0.000081 0.000440 0.000000
0.000082 0.000450 0.000000
0.000082 0.000461 0.000000
0.000082 0.000470 0.000000
0.000082 0.000480 0.000000
0.000083 0.000489 0.000000
0.000083 0.000502 0.000000
0.000086 0.000511 0.000000
0.000091 0.000520 0.000000
0.000096 0.000543 0.000000
0.000102 0.000553 0.000000
0.000104 0.000568 0.000000
0.000106 0.000580 0.000000
0.000108 0.000592 0.000000
0.000109 0.000603 0.000000
0.000109 0.000614 0.000000
0.000110 0.000624 0.000000
0.000090 0.000300 0.000000
0.000090 0.000310 0.000000
0.000090 0.000320 0.000000
0.000090 0.000330 0.000000
0.000090 0.000340 0.000000
0.000091 0.000351 0.000000
0.000090 0.000360 0.000000
0.000091 0.000370 0.000000
0.000091 0.000381 0.000000
0.000091 0.000390 0.000000
0.000091 0.000400 0.000000
0.000091 0.000411 0.000000
0.000091 0.000420 0.000000
0.000091 0.000429 0.000000
0.000092 0.000440 0.000000
0.000092 0.000451 0.000000
0.000092 0.000459 0.000000
0.000092 0.000470 0.000000
0.000092 0.000480 0.000000
0.000092 0.000491 0.000000
0.000094 0.000500 0.000000
0.000096 0.000510 0.000000
0.000098 0.000526 0.000000
0.000102 0.000535 0.000000
0.000108 0.000545 0.000000
0.000111 0.000565 0.000000
0.000115 0.000577 0.000000
0.000115 0.000590 0.000000
0.000118 0.000602 0.000000
0.000119 0.000613 0.000000
0.000120 0.000623 0.000000
0.000100 0.000300 0.000000
0.000100 0.000310 0.000000
0.000100 0.000320 0.000000
0.000100 0.000330 0.000000
0.000101 0.000340 0.000000
0.000100 0.000350 0.000000
0.000100 0.000360 0.000000
0.000101 0.000371 0.000000
0.000100 0.000380 0.000000
0.000101 0.000390 0.000000
0.000101 0.000401 0.000000
0.000101 0.000410 0.000000
0.000101 0.000420 0.000000
0.000101 0.000430 0.000000
0.000102 0.000440 0.000000
0.000102 0.000450 0.000000
0.000102 0.000460 0.000000
0.000102 0.000471 0.000000
0.000102 0.000480 0.000000
0.000103 0.000489 0.000000
0.000104 0.000500 0.000000
0.000104 0.000512 0.000000
0.000106 0.000521 0.000000
0.000110 0.000533 0.000000
0.000113 0.000552 0.000000
0.000118 0.000563 0.000000
0.000122 0.000577 0.000000
0.000124 0.000589 0.000000
0.000126 0.000600 0.000000
0.000128 0.000611 0.000000
0.000129 0.000622 0.000000
0.000110 0.000300 0.000000
0.000110 0.000310 0.000000
0.000110 0.000320 0.000000
0.000111 0.000330 0.000000
0.000110 0.000340 0.000000
0.000110 0.000350 0.000000
0.000111 0.000360 0.000000
0.000110 0.000369 0.000000
0.000111 0.000380 0.000000
0.000111 0.000391 0.000000
0.000110 0.000400 0.000000
0.000111 0.000410 0.000000
0.000111 0.000421 0.000000
0.000111 0.000430 0.000000
0.000112 0.000439 0.000000
0.000112 0.000450 0.000000
0.000112 0.000460 0.000000
0.000112 0.000469 0.000000
0.000112 0.000480 0.000000
0.000112 0.000491 0.000000
0.000112 0.000501 0.000000
0.000114 0.000511 0.000000
0.000115 0.000521 0.000000
0.000117 0.000534 0.000000
0.000120 0.000544 0.000000
0.000124 0.000556 0.000000
[...]
POINT_DATA 6231
SCALARS density float 1
LOOKUP_TABLE default
4383.802350
4419.657603
4420.511044
4422.286319
4418.840435
4419.908949
4425.798045
4422.055949
4420.764556
4425.341618
4422.535173
4423.606324
4424.068752
4426.752302
4423.722229
4429.270145
4422.639626
4435.664404
4426.300883
4436.407860
4414.293886
4668.055171
4451.957445
4639.530210
4515.584222
4543.767297
4517.839096
4560.506707
4529.503928
4625.769514
4466.841582
4392.062002
4415.576803
4420.094958
4415.326489
4414.710130
4423.603544
4420.870065
4415.166646
4425.748917
4424.331816
4415.529181
4427.022989
4421.946345
4426.487077
4413.656176
4432.732458
4409.769228
4420.626683
4393.066991
4482.417852
4383.353842
4416.246470
4410.295944
4448.402956
4440.384581
4436.158050
4409.741333
4409.179187
4365.865094
4355.318696
4523.874280
4403.585719
4415.121284
4413.632545
4411.079709
4429.302181
4421.778815
4407.552723
4431.596409
4419.836748
4416.837513
4427.230261
4433.513062
4406.843811
4440.848816
4409.533462
4454.482781
4390.174375
4500.138951
4358.311902
4454.753470
4369.758159
4493.713566
4487.856267
4495.461882
4477.353768
4470.863928
4482.419130
4479.197832
4516.251979
4521.667194
4456.949213
4401.028208
4415.111357
4423.598286
4424.285916
4413.875407
4413.125725
4431.060042
4432.066329
4404.805572
4436.485800
4418.642303
4423.249680
4425.734611
4441.943771
4408.149025
4448.957834
4407.658091
4459.731593
4371.934601
4574.410871
4340.576224
4409.354353
4449.204437
4466.326590
4463.888343
4454.458505
4453.336181
4451.774789
4421.601174
4455.022525
4443.692995
4407.684980
4431.506481
4416.418910
4415.171516
4420.321051
4432.550018
4421.062882
4410.876917
4432.693922
4438.087258
4406.596622
4439.661030
4429.326512
4423.565817
4436.075456
4436.580237
4427.075707
4457.869421
4419.930890
4496.124856
4398.851638
4471.033223
4470.902946
4472.979751
4453.665528
4462.726729
4445.235749
4463.145870
4461.245965
4457.191211
4451.623636
4421.985316
4422.900822
4404.792131
4432.713705
4428.238319
4415.619259
4417.081022
4436.279668
4431.793279
4407.897028
4438.749655
4434.686055
4410.675349
4438.357699
4433.049484
4424.525962
4435.552948
4428.462748
4456.041458
4406.798768
4490.610412
4460.601167
4449.792081
4462.373635
4465.913596
4465.274587
4457.849322
4450.340576
4449.053984
4452.562779
4447.290573
4412.400137
4415.529160
4435.149663
4431.809455
4405.783010
4430.576550
4436.846174
4417.965545
4415.849906
4438.190036
4438.098641
4408.456025
4442.824607
4437.807324
4419.228419
4440.179523
4442.328520
4426.122384
4442.762979
4423.580650
4424.749877
4467.432110
4458.066105
4460.140629
4462.065457
4445.383779
4456.341570
4456.314835
4451.285030
4452.482675
4447.823184
4416.491438
4432.161820
4429.294706
4401.416519
4439.150517
4437.525714
4407.649671
4428.690288
4439.108702
4426.308903
4414.725099
4442.173540
4438.818213
4410.006603
4445.706961
4438.089542
4422.024141
4441.155138
4432.101173
4445.004455
4453.648155
4446.798914
4474.574172
4445.844961
4453.415634
4469.095880
4454.820043
4455.621459
4449.002670
4455.468196
4445.631286
4428.896000
4426.106744
4410.377911
4439.670039
4440.701258
4400.199318
4439.671144
4442.131967
4411.293269
4425.359582
4440.948546
4432.324618
4416.611610
4446.937232
4441.300339
4417.063978
4446.032998
4438.717462
4429.949822
4433.933807
4435.293401
4450.327409
4448.719703
4464.310279
4450.166929
4463.767995
4449.348399
4458.842112
4447.869663
4455.488566
4445.892417
4422.830551
4422.607136
4436.177864
4435.160931
4402.424844
4443.520501
4446.360632
4399.788519
4440.549996
4443.941351
4416.682295
4424.394820
4441.292429
4435.600495
4414.945996
4446.560081
4439.712196
4415.448791
4444.142650
4434.502489
4451.755350
4451.738300
4445.586543
4455.023040
4455.371156
4459.137138
4453.631952
4457.892992
4453.243039
4457.980533
4443.511079
4426.644772
4430.318441
4428.201508
4410.378581
4441.944838
4443.777905
4399.388988
4447.085725
4448.067819
4402.916139
4437.751284
4445.307782
4421.919015
4425.244975
4443.618519
4439.050631
4419.112892
4446.998712
4441.357316
4427.743912
4451.170375
4425.647013
4455.474881
4445.610159
4440.063530
4464.828047
4441.997783
4472.024991
4439.372050
4458.410116
4445.615666
4426.724368
4426.585956
4424.065629
4438.021267
4436.823705
4403.609011
4445.381695
4449.252498
4397.853580
4449.166283
4449.254660
4406.996906
4434.622578
4444.132593
4425.386805
4422.427365
4441.583734
4442.359506
4421.377533
4445.760804
4432.928208
4444.333883
4450.059844
4438.985743
4455.311823
4442.180881
4452.024986
4458.827717
4450.246559
4463.366408
4444.266819
4427.633661
4434.800319
4432.569703
4427.218834
4414.823525
4443.508290
4445.559494
4399.837329
4448.572673
4450.639735
4398.679076
4447.828435
4449.766286
4411.850368
4432.163527
4445.667562
4429.423942
4420.726725
4431.466182
4441.228911
4430.240216
4452.864729
4433.352206
4450.311359
4448.790419
4447.988709
4446.741752
4453.610158
4451.816472
4459.413467
4447.864871
4436.429828
4428.999590
4420.702578
4431.358335
4438.919900
4432.138741
4407.558941
4447.627821
4451.253643
4398.690659
4450.602990
4450.699953
4400.544309
4444.014101
4446.776709
4415.292921
4425.999406
4441.631510
4436.134773
4433.769032
4441.841367
4441.426292
4438.435118
4448.081747
4438.690708
4449.883639
4448.496718
4455.479397
4445.933820
4456.365187
4453.205942
4427.569382
4422.226459
4440.005288
4435.827700
4421.242962
4423.706831
4443.136157
4440.430320
4402.740386
4450.112143
4452.126617
4400.070538
4450.205442
4449.325955
4406.756854
4438.337310
4446.185731
4422.412463
4426.937625
4434.279701
4436.163861
4437.175955
4444.630842
4444.287780
4448.589194
4447.003803
4444.779568
4442.746721
4460.885731
4452.570426
4455.420710
4428.436811
4437.157776
4435.312170
4414.174629
4438.616097
4440.475561
4425.133975
4416.468752
4446.466706
4447.831926
4400.814491
4450.248446
4451.996784
4400.914962
4447.141181
4446.253521
4413.106951
4430.133313
4441.361795
4431.972251
4434.277316
4441.936096
4442.637398
4441.797238
4446.281157
4444.480122
4447.155478
4459.892016
4445.689111
4452.409458
4457.223441
4436.617825
4432.580384
4417.785475
4442.622852
4442.212408
4413.357779
4433.906495
4442.691879
4432.359613
4409.686333
4449.571878
4450.137169
4402.153496
4450.145815
4450.140049
4405.447328
4442.469434
4443.914105
4422.033066
4430.527756
4439.498365
4435.111850
4444.184208
4442.175370
4447.119191
4445.981922
4452.846996
4437.890926
4462.397059
4452.496641
4459.134847
4431.597075
4427.862537
4439.165966
4438.967636
4410.694214
4444.629551
4445.622737
4415.564155
4426.750759
4444.334763
4441.325636
4406.031598
4449.944405
4449.198877
4404.638034
4448.018487
4447.079356
4412.309034
4440.164810
4437.456722
4435.847479
4433.728804
4445.157770
4436.775289
4452.095895
4442.866993
4455.008726
4451.354027
4456.623735
4451.584188
4461.691353
4433.036901
4432.867844
4432.769453
4418.598252
4442.387481
4444.634264
4407.610563
4444.453019
4445.258094
4421.132586
4420.362193
4446.507306
4447.580102
4405.456635
4450.111751
4446.875596
4411.325721
4444.621671
4447.350917
4420.798919
4441.096622
4432.163864
4445.314136
4437.727113
4455.211625
4439.038145
4459.991383
4443.695565
4466.615386
4448.994121
4464.110506
4432.613124
4431.421465
4429.327342
4438.970731
4438.638184
4411.907379
4445.488019
4448.166441
4408.976569
4439.584593
4444.822937
4428.356980
4415.885149
4447.946537
4449.876539
4406.759232
4449.972018
4444.195060
4419.341558
4441.688706
4446.301755
4429.845864
4448.620063
4433.804469
4454.097468
4441.677063
4464.979508
4445.233827
4469.237131
4447.957631
4465.179961
4433.831215
4435.331485
4434.411482
4430.944561
4422.247281
4442.137924
4444.522986
4406.894984
4448.237436
4448.522221
4414.215210
4431.568522
4445.428340
4436.899085
4414.242528
4449.188923
4449.100372
4413.126085
4450.543142
4443.345178
4429.168872
4441.230437
4446.552344
4438.269315
4456.492660
4441.948050
4462.546354
4447.178155
4467.477009
4448.210638
4464.220614
4437.323228
4431.057865
4427.667889
4434.384289
4439.230282
4434.125889
4416.308622
4445.482378
4448.930049
4405.957512
4447.839689
4446.746982
4421.147627
4425.531093
4446.365707
4443.404123
4414.705539
4449.210789
4447.962401
4422.157192
4450.868976
4442.658133
4440.330745
4444.709328
4451.703398
4446.918597
4462.148385
4448.663684
4464.817287
4451.954317
4461.614044
4432.766855
4429.971594
4439.194319
4435.444626
4426.228908
4429.080055
4441.628414
4439.215787
4411.742541
4448.837808
4450.775233
4409.259714
4443.126058
4445.428383
4429.218218
4422.528514
4448.851519
4446.419152
4418.910326
4450.047856
4447.582510
4431.297370
4451.000341
4444.163896
4449.826645
4449.725670
4455.609804
4451.383595
4460.872867
4453.223322
4458.598987
4434.980069
4434.824924
4433.417815
4424.237981
4438.972607
4439.965331
4428.808058
4423.923349
4443.495024
4444.394783
4408.756143
4451.118324
4450.391106
4414.932128
4436.785388
4445.238655
4437.303525
4422.312678
4451.114789
4446.533867
4427.042822
4450.923468
4447.378563
4441.242221
4452.438580
4446.791426
4455.149454
4453.572610
4456.812626
4454.216833
4455.992216
4435.052583
4432.128427
4429.921788
4439.871103
4437.813403
4421.590970
4435.985084
4442.553000
4433.072074
4419.421727
4446.519461
4448.177412
4409.226290
4450.581384
4448.545281
4422.287249
4432.340871
4446.410086
4444.067032
4424.971342
4452.301530
4446.561855
4435.367418
4450.283648
4447.931465
4448.527506
4453.526708
4449.657302
4454.928249
4452.937904
4453.837181
4434.883361
4435.888894
4436.057619
4433.407685
4424.174539
4442.151386
4441.873172
4422.010068
4432.089764
4443.333014
4438.552755
4415.937362
4449.671462
4449.771323
4412.741180
4446.822423
4446.732775
4429.964388
4430.773679
4448.441346
4447.087327
4430.317106
4452.219447
4446.224068
4443.437688
4449.927293
4448.193277
4451.397120
4452.626125
4452.006518
4452.158444
4439.317109
4432.889847
4429.064561
4434.258220
4439.037401
4436.582663
4420.169854
4442.460397
4444.346349
4425.402385
4428.270712
4444.519713
4443.758351
4414.112660
4451.557813
4449.588904
4418.755000
4442.229923
4446.250740
4437.269600
4431.694281
4449.551255
4447.528541
4436.730490
4450.240476
4445.990180
4448.089084
4449.969670
4448.302708
4451.199861
4450.618772
4434.092931
4429.306071
4439.144962
4437.103355
4429.603053
4429.573196
4441.445709
4440.995160
4418.238215
4440.981918
4444.550300
4430.117347
4424.641846
4447.084168
4447.567287
4415.180405
4450.905265
4447.985924
4426.096773
4438.333450
4446.244987
4442.938394
4434.314025
4449.414659
4446.394491
4443.028400
4448.612230
4445.761768
4449.346288
4449.424386
4448.898541
4434.795631
4437.256743
4436.225341
4425.264261
4437.762061
4439.782448
4432.397765
4424.592409
4443.533449
4444.812242
4419.295691
4438.069472
4444.394520
4435.549194
4421.752236
4449.616603
4448.898901
4418.965747
4448.007698
4446.403986
4433.471578
4437.227883
4446.339325
4445.799349
4438.346269
4448.165567
4445.200559
4446.644311
4447.519161
4447.218183
4447.664830
4438.783198
4434.010080
4427.033626
4440.858363
4439.776200
4424.844680
4435.149667
4441.272517
4436.899876
4420.498894
4444.886151
4446.318703
4422.923342
4434.089736
4444.868424
4441.066101
4420.720955
4450.621945
4447.742787
4425.095510
4444.151695
4444.873149
4439.440942
4438.303725
4446.056156
4445.856718
4442.384566
4447.423081
4445.748922
4447.381893
4446.569269
4435.719927
4432.446844
4438.897946
4437.739232
4422.917127
4441.337251
4441.573218
4426.833222
4431.360145
4442.815042
4441.758323
4418.541636
4444.212966
4445.853940
4428.416458
4430.572610
4446.034047
4444.852807
4422.192337
4449.757257
4445.772522
4431.861876
4441.523701
4444.121534
4443.074501
4440.606085
4446.177920
4445.398335
4445.344709
4447.915395
4443.343220
4437.716290
4434.823687
4433.826097
4428.226373
4440.408022
4440.785825
4421.204783
4440.861069
4441.894984
4430.651449
4426.718073
4444.910906
4445.533667
4419.602117
4441.433627
4444.858946
4434.044794
4428.356254
4447.274798
4445.561186
4426.375227
4447.490229
4443.820838
4437.770115
4441.240282
4444.069702
4444.342832
4443.620358
4446.133545
4445.856663
4443.566751
4436.147279
4431.582130
4434.287609
4438.768504
4436.396100
4424.519277
4441.877256
4442.829246
4421.840833
4438.717109
4442.142087
4435.502514
4422.800334
4446.380996
4446.750589
4423.682650
4438.060478
4444.437039
4439.336383
4428.141572
4447.639611
4444.606509
4431.992439
4445.103246
4442.860609
4441.719277
4442.219288
4444.288846
4445.608602
4444.534871
4442.856222
4435.389227
4436.932142
4437.147257
4431.474609
4430.990842
4440.596286
4439.117764
4421.711264
4442.965571
4443.421827
4424.843264
4434.820668
4442.993967
4440.280900
4421.284194
4445.783477
4445.534988
4429.133489
4435.150501
4444.408452
4442.279234
4430.146355
4447.044132
4443.192458
4437.283366
4443.647868
4443.240244
4443.652977
4443.208348
4444.949276
4440.641153
4440.442832
4434.874365
4428.583596
4437.231239
4439.315341
4432.698224
4428.303007
4441.997988
4441.632473
4420.589402
4442.641652
4443.101212
4429.546650
4430.648191
4444.432663
4443.686553
4422.721400
4443.536491
4443.923424
4434.534771
4434.005253
4444.924933
4443.000769
4433.672478
4445.636610
4442.515717
4440.497650
4443.912165
4443.268012
4444.453063
4441.091273
4435.897991
4429.352085
4439.160823
4439.062316
4427.231949
4435.752796
4440.364765
4434.949915
4425.421526
4443.468535
4443.213362
4421.807912
4440.447147
4442.633452
4434.395800
4427.392170
4445.360078
4444.531246
4426.796950
4441.059882
4442.812830
4438.528919
4434.293428
4445.192341
4442.226594
4437.720967
4444.179284
4442.164651
4442.854937
4442.827948
4439.810625
4434.950684
4437.218165
4437.830599
4425.918808
4438.691534
4441.170476
4427.518839
4434.134212
4440.901706
4437.727028
4423.222652
4444.409276
4443.668063
4425.188773
4437.326890
4442.936995
4438.754892
4426.489996
4444.736056
4443.520516
4431.962049
4439.172841
4442.612317
4440.890441
4435.958110
4444.309018
4441.898853
4440.397823
4443.109193
4442.318202
4439.267128
4439.619160
4435.047187
4427.582790
4439.565756
4440.784000
4423.990766
4438.861384
4441.629908
4429.485864
4431.988653
4441.670319
4440.035139
4422.498759
4443.897092
4443.001737
4429.616919
4434.094515
4443.490083
4441.426752
4428.146861
4443.157890
4442.113167
4436.387438
4438.259798
4442.704975
4441.518253
4438.036458
4443.485443
4441.751624
4441.613543
4439.507800
4435.983375
4430.996689
4438.753064
4439.074564
4424.368287
4440.454420
4442.479431
4423.392425
4438.529531
4441.336051
4432.295740
4429.632397
4442.795281
4441.735960
4423.976977
4441.940558
4442.270297
4433.995283
4431.934643
4443.791772
4441.980204
4431.690301
4441.590752
4441.337440
4439.024807
4438.439157
4442.426544
4441.163900
4439.717481
4441.802820
4437.825490
4436.208947
4435.898797
4436.222896
4427.032796
4439.216549
4441.487029
4422.179777
4441.561305
4442.830591
4424.607724
4437.285655
4441.160569
4435.266744
4427.476925
4443.395678
4442.240966
4427.113694
4439.513998
4441.886722
4437.578992
4431.621639
4443.145655
4441.136589
4435.303482
4440.483881
4440.892959
4440.197824
4439.341599
4441.505617
4441.018715
4438.082456
4437.389637
4433.584714
4430.714677
4438.925525
4439.084200
4424.458467
4440.332227
4442.697477
4421.282848
4441.948444
4442.429755
4427.195027
4435.335767
4441.388944
4437.946474
4426.948015
4442.855711
4441.771987
4431.005989
4437.059382
4441.728655
4439.642735
4433.158028
4442.054848
4440.228402
4438.005050
4439.706562
4440.546277
4440.770734
4439.300887
4438.070547
4435.930291
4434.271215
4437.313614
4435.747774
4427.216530
4439.949127
4441.035998
4422.572217
4441.664155
4442.891435
4421.941458
4441.296821
4441.477614
4430.546488
4433.252402
4441.739076
4439.661067
4428.140835
4441.387982
4441.058354
4434.670247
4435.649381
4441.359461
4440.044240
4435.332237
4440.923960
4439.838986
4439.182207
4439.309453
4439.929289
4436.902151
4437.938323
4433.965833
4432.574881
4432.158097
4438.524200
4437.804832
4425.078717
4440.975368
4441.971009
4421.846846
4442.397736
4442.545495
4424.118733
4439.900264
4440.649381
4433.645630
4431.662298
4441.974896
4440.165837
4430.653192
4439.619164
4440.465757
4437.315103
4435.522437
4440.873643
4439.594194
4437.060373
4440.361607
4439.204615
4439.775760
4437.189119
4435.445666
4431.530884
4436.047150
4437.357648
4433.545696
4429.755697
4439.367063
4439.494087
4423.626888
4441.913543
4442.124646
4422.213647
4442.314042
4441.595292
4427.171637
4438.184953
4440.286124
4436.182589
4431.223893
4441.405244
4439.838719
4433.475529
4438.160628
4439.927354
4438.397460
4436.466453
4440.025120
4438.999403
4438.425666
4438.872109
4436.501173
4435.149645
4436.171048
4436.009667
4430.193594
4434.110297
4438.732814
4435.011959
4427.807577
4440.261868
4440.443538
4423.153861
4442.456606
4441.756584
4423.888710
4441.530176
4440.465748
4430.469394
4436.210099
4440.142526
4437.871080
4432.132723
4440.297910
4439.220215
4435.929341
4437.388123
4439.375766
4438.677125
4437.265092
4439.212291
4438.580492
4436.198591
4438.044191
4433.915125
4429.518022
4437.342385
4438.010508
4430.387520
4432.778046
4439.260492
4436.597292
4426.484319
4440.963974
4440.727812
4423.586327
4442.385093
4440.891856
4426.443426
4440.233896
4439.596626
4433.470647
4434.899421
4439.825730
4438.397729
4433.732163
4439.089136
4438.673282
4437.322400
4437.152074
4439.000815
4438.472716
4437.751329
4436.462280
4435.151970
4431.341099
4437.591410
4437.066590
4427.665033
4436.864130
4438.816303
4431.374282
4431.528309
4439.654435
4437.781181
4425.884712
4441.319862
4440.462453
4424.979533
4441.854322
4439.717697
4429.375075
4438.645197
4439.007834
4435.644527
4434.511953
4439.339882
4438.278142
4435.249160
4438.322105
4438.159638
4437.730518
4437.190846
4437.965247
4435.507974
4435.335851
4435.094175
4435.123417
4428.443113
4437.577889
4438.876566
4427.092141
4436.404737
4438.943607
4432.794771
4430.309511
4440.086290
4438.530415
4426.119150
4441.247038
4439.734360
4427.102230
4440.916181
4438.680769
4432.133305
4437.234387
4438.592276
4436.770977
4434.922552
4438.617937
4437.843930
4436.324454
4437.906746
4437.582339
4437.805172
4435.518214
4436.325195
4433.075384
4431.032193
4437.424018
4437.371046
4426.643416
4437.880307
4439.558654
4427.586891
4435.596801
4438.930584
4434.309774
4429.388278
4440.278376
4438.728654
4427.138443
4440.851256
4438.731878
4429.571877
4439.641957
4437.939352
4434.328522
4436.296592
4438.187521
4437.115848
4435.673729
4437.841456
4437.371953
4437.025728
4436.927392
4435.332656
4434.791428
4433.324232
4436.243475
4434.897040
4428.346210
4438.041357
4438.820543
4425.671610
4438.100032
4439.399717
4428.988912
4434.465095
4438.849564
4435.664994
4429.116175
4440.142431
4438.390956
4428.743560
4440.151833
4437.768787
4431.937817
4438.304495
4437.445479
4435.712591
4435.920373
4437.690543
4437.105860
4436.118285
4437.220738
4436.818221
4434.826388
4436.167656
4433.745899
4432.569929
4431.637345
4437.024197
4436.633444
4426.741715
4438.599984
4439.431920
4425.809360
4437.836069
4438.935364
4430.865579
4433.378463
4438.704506
4436.562720
4429.550290
4439.747968
4437.730540
4430.636528
4439.205240
4437.076395
4433.797748
4437.237225
4437.130876
4436.280846
4435.849998
4437.284461
4436.706308
4436.400522
4435.014585
4434.691430
4431.543785
4434.316351
4436.281518
4433.565737
4429.775948
4437.484958
4437.932742
4425.704579
4438.997122
4439.308672
4426.856319
4437.112942
4438.368480
4432.684943
4432.666682
4438.504335
4436.848382
4430.507566
4439.173358
4436.955486
4432.476726
4438.146999
4436.655217
4434.952487
4436.614959
4436.726877
4436.366135
4435.948859
4436.306191
4434.452118
4434.017382
4434.865221
4435.155160
4431.051962
4432.649190
4437.175842
4434.824229
4428.362847
4438.036637
4438.599110
4425.587554
4439.032701
4438.737401
4428.569778
4436.206787
4437.870902
4434.084402
4432.441939
4438.208169
4436.698911
4431.767433
4438.446608
4436.303276
4433.970060
4437.168997
4436.323791
4435.591334
4436.217110
4436.248566
4436.212387
4434.328795
4436.586472
4433.364256
4429.974807
4435.207610
4436.549193
4431.530919
4431.529330
4437.448633
4436.018420
4427.410629
4438.389452
4438.636243
4426.344888
4438.577243
4437.968034
4430.522452
4435.271085
4437.437337