# vtk DataFile Version 2.0
mfree iwf
ASCII

DATASET UNSTRUCTURED_GRID
POINTS 6231 float
0.000000 0.000300 0.000000
0.000000 0.000310 0.000000
0.000000 0.000320 0.000000
0.000000 0.000330 0.000000
0.000000 0.000340 0.000000
0.000000 0.000350 0.000000
0.000001 0.000360 0.000000
0.000001 0.000370 0.000000
0.000001 0.000380 0.000000
0.000001 0.000390 0.000000
0.000001 0.000400 0.000000
0.000001 0.000410 0.000000
0.000001 0.000420 0.000000
0.000001 0.000430 0.000000
0.000001 0.000440 0.000000
0.000002 0.000450 0.000000
0.000002 0.000460 0.000000
0.000002 0.000471 0.000000
0.000002 0.000480 0.000000
0.000002 0.000492 0.000000
0.000006 0.000501 0.000000
0.000625 0.000858 0.000000
0.000688 0.000909 0.000000
0.000639 0.000869 0.000000
0.000700 0.000916 0.000000
0.000720 0.000925 0.000000
0.000768 0.000939 0.000000
0.000776 0.000939 0.000000
0.000788 0.000936 0.000000
0.000802 0.000936 0.000000
0.000833 0.000941 0.000000
0.000010 0.000300 0.000000
0.000010 0.000310 0.000000
0.000010 0.000320 0.000000
0.000010 0.000330 0.000000
0.000010 0.000340 0.000000
0.000010 0.000350 0.000000
0.000011 0.000360 0.000000
0.000011 0.000370 0.000000
0.000011 0.000380 0.000000
0.000011 0.000390 0.000000
0.000011 0.000400 0.000000
0.000011 0.000410 0.000000
0.000011 0.000420 0.000000
0.000011 0.000430 0.000000
0.000011 0.000440 0.000000
0.000012 0.000450 0.000000
0.000012 0.000460 0.000000
0.000012 0.000472 0.000000
0.000013 0.000478 0.000000
0.000009 0.000492 0.000000
0.000013 0.000498 0.000000
0.000739 0.000926 0.000000
0.000754 0.000929 0.000000
0.000762 0.000932 0.000000
0.000768 0.000930 0.000000
0.000785 0.000928 0.000000
0.000797 0.000928 0.000000
0.000811 0.000927 0.000000
0.000822 0.000930 0.000000
0.000828 0.000930 0.000000
0.000830 0.000937 0.000000
0.000020 0.000300 0.000000
0.000020 0.000310 0.000000
0.000020 0.000320 0.000000
0.000020 0.000330 0.000000
0.000021 0.000340 0.000000
0.000020 0.000350 0.000000
0.000021 0.000360 0.000000
0.000021 0.000370 0.000000
0.000020 0.000380 0.000000
0.000021 0.000390 0.000000
0.000021 0.000400 0.000000
0.000022 0.000410 0.000000
0.000020 0.000420 0.000000
0.000022 0.000431 0.000000
0.000020 0.000440 0.000000
0.000024 0.000451 0.000000
0.000021 0.000460 0.000000
0.000022 0.000470 0.000000
0.000021 0.000481 0.000000
0.000024 0.000494 0.000000
0.000020 0.000497 0.000000
0.000710 0.000909 0.000000
0.000737 0.000921 0.000000
0.000746 0.000924 0.000000
0.000752 0.000923 0.000000
0.000762 0.000918 0.000000
0.000777 0.000924 0.000000
0.000804 0.000923 0.000000
0.000818 0.000925 0.000000
0.000827 0.000918 0.000000
0.000835 0.000917 0.000000
0.000030 0.000300 0.000000
0.000030 0.000310 0.000000
0.000030 0.000320 0.000000
0.000031 0.000330 0.000000
0.000030 0.000340 0.000000
0.000030 0.000349 0.000000
0.000031 0.000360 0.000000
0.000030 0.000370 0.000000
0.000032 0.000380 0.000000
0.000030 0.000390 0.000000
0.000031 0.000400 0.000000
0.000031 0.000411 0.000000
0.000031 0.000420 0.000000
0.000031 0.000430 0.000000
0.000032 0.000440 0.000000
0.000030 0.000450 0.000000
0.000032 0.000459 0.000000
0.000036 0.000473 0.000000
0.000030 0.000478 0.000000
0.000033 0.000488 0.000000
0.000032 0.000497 0.000000
0.000063 0.000500 0.000000
0.000730 0.000915 0.000000
0.000747 0.000909 0.000000
0.000774 0.000915 0.000000
0.000784 0.000909 0.000000
0.000788 0.000920 0.000000
0.000794 0.000914 0.000000
0.000805 0.000913 0.000000
0.000812 0.000914 0.000000
0.000835 0.000908 0.000000
0.000040 0.000300 0.000000
0.000040 0.000310 0.000000
0.000041 0.000320 0.000000
0.000040 0.000329 0.000000
0.000040 0.000340 0.000000
0.000041 0.000351 0.000000
0.000040 0.000360 0.000000
0.000041 0.000370 0.000000
0.000041 0.000380 0.000000
0.000040 0.000390 0.000000
0.000043 0.000399 0.000000
0.000040 0.000410 0.000000
0.000043 0.000420 0.000000
0.000040 0.000431 0.000000
0.000043 0.000439 0.000000
0.000043 0.000450 0.000000
0.000043 0.000460 0.000000
0.000036 0.000469 0.000000
0.000045 0.000477 0.000000
0.000043 0.000496 0.000000
0.000040 0.000498 0.000000
0.000556 0.000697 0.000000
0.000739 0.000906 0.000000
0.000758 0.000909 0.000000
0.000765 0.000905 0.000000
0.000772 0.000912 0.000000
0.000794 0.000905 0.000000
0.000817 0.000904 0.000000
0.000817 0.000894 0.000000
0.000825 0.000909 0.000000
0.000835 0.000899 0.000000
0.000050 0.000300 0.000000
0.000050 0.000310 0.000000
0.000050 0.000320 0.000000
0.000049 0.000331 0.000000
0.000052 0.000340 0.000000
0.000050 0.000348 0.000000
0.000051 0.000360 0.000000
0.000050 0.000371 0.000000
0.000052 0.000380 0.000000
0.000050 0.000390 0.000000
0.000052 0.000400 0.000000
0.000049 0.000411 0.000000
0.000053 0.000420 0.000000
0.000051 0.000430 0.000000
0.000053 0.000440 0.000000
0.000047 0.000451 0.000000
0.000054 0.000458 0.000000
0.000053 0.000469 0.000000
0.000056 0.000483 0.000000
0.000049 0.000488 0.000000
0.000050 0.000498 0.000000
0.000725 0.000920 0.000000
0.000685 0.000899 0.000000
0.000753 0.000903 0.000000
0.000770 0.000894 0.000000
0.000783 0.000899 0.000000
0.000800 0.000900 0.000000
0.000792 0.000893 0.000000
0.000808 0.000901 0.000000
0.000825 0.000897 0.000000
0.000833 0.000888 0.000000
0.000060 0.000300 0.000000
0.000060 0.000310 0.000000
0.000060 0.000321 0.000000
0.000061 0.000329 0.000000
0.000060 0.000340 0.000000
0.000059 0.000351 0.000000
0.000063 0.000361 0.000000
0.000059 0.000368 0.000000
0.000062 0.000381 0.000000
0.000059 0.000390 0.000000
0.000063 0.000400 0.000000
0.000061 0.000409 0.000000
0.000063 0.000419 0.000000
0.000058 0.000431 0.000000
0.000065 0.000439 0.000000
0.000061 0.000450 0.000000
0.000065 0.000460 0.000000
0.000055 0.000472 0.000000
0.000065 0.000475 0.000000
0.000068 0.000486 0.000000
0.000058 0.000496 0.000000
0.000716 0.000917 0.000000
0.000730 0.000905 0.000000
0.000748 0.000891 0.000000
0.000761 0.000893 0.000000
0.000778 0.000887 0.000000
0.000785 0.000882 0.000000
0.000813 0.000884 0.000000
0.000804 0.000889 0.000000
0.000823 0.000885 0.000000
0.000832 0.000879 0.000000
0.000070 0.000300 0.000000
0.000070 0.000310 0.000000
0.000070 0.000320 0.000000
0.000070 0.000331 0.000000
0.000071 0.000340 0.000000
0.000071 0.000350 0.000000
0.000071 0.000357 0.000000
0.000067 0.000373 0.000000
0.000075 0.000376 0.000000
0.000070 0.000390 0.000000
0.000072 0.000400 0.000000
0.000069 0.000412 0.000000
0.000074 0.000421 0.000000
0.000069 0.000429 0.000000
0.000075 0.000439 0.000000
0.000066 0.000451 0.000000
0.000077 0.000458 0.000000
0.000073 0.000470 0.000000
0.000076 0.000486 0.000000
0.000068 0.000495 0.000000
0.000076 0.000496 0.000000
0.000553 0.000672 0.000000
0.000719 0.000904 0.000000
0.000741 0.000897 0.000000
0.000763 0.000877 0.000000
0.000778 0.000896 0.000000
0.000795 0.000881 0.000000
0.000803 0.000883 0.000000
0.000802 0.000871 0.000000
0.000820 0.000875 0.000000
0.000830 0.000869 0.000000
0.000080 0.000300 0.000000
0.000080 0.000310 0.000000
0.000080 0.000320 0.000000
0.000080 0.000330 0.000000
0.000080 0.000341 0.000000
0.000082 0.000352 0.000000
0.000078 0.000362 0.000000
0.000081 0.000370 0.000000
0.000079 0.000383 0.000000
0.000079 0.000392 0.000000
0.000088 0.000396 0.000000
0.000079 0.000408 0.000000
0.000084 0.000417 0.000000
0.000079 0.000430 0.000000
0.000087 0.000444 0.000000
0.000077 0.000447 0.000000
0.000086 0.000463 0.000000
0.000074 0.000470 0.000000
0.000087 0.000473 0.000000
0.000085 0.000482 0.000000
0.000084 0.000495 0.000000
0.000706 0.000913 0.000000
0.000679 0.000903 0.000000
0.000749 0.000879 0.000000
0.000759 0.000889 0.000000
0.000773 0.000879 0.000000
0.000780 0.000870 0.000000
0.000790 0.000872 0.000000
0.000811 0.000871 0.000000
0.000819 0.000866 0.000000
0.000828 0.000859 0.000000
0.000090 0.000300 0.000000
0.000090 0.000310 0.000000
0.000089 0.000320 0.000000
0.000091 0.000329 0.000000
0.000091 0.000340 0.000000
0.000089 0.000348 0.000000
0.000091 0.000359 0.000000
0.000090 0.000368 0.000000
0.000091 0.000379 0.000000
0.000091 0.000388 0.000000
0.000085 0.000406 0.000000
0.000094 0.000409 0.000000
0.000089 0.000425 0.000000
0.000096 0.000425 0.000000
0.000088 0.000436 0.000000
0.000097 0.000455 0.000000
0.000086 0.000454 0.000000
0.000097 0.000471 0.000000
0.000106 0.000480 0.000000
0.000089 0.000494 0.000000
0.000094 0.000495 0.000000
0.000560 0.000715 0.000000
0.000714 0.000898 0.000000
0.000701 0.000902 0.000000
0.000732 0.000896 0.000000
0.000761 0.000867 0.000000
0.000786 0.000862 0.000000
0.000799 0.000865 0.000000
0.000807 0.000859 0.000000
0.000817 0.000856 0.000000
0.000825 0.000850 0.000000
0.000100 0.000300 0.000000
0.000100 0.000310 0.000000
0.000101 0.000319 0.000000
0.000099 0.000331 0.000000
0.000101 0.000341 0.000000
0.000100 0.000351 0.000000
0.000102 0.000361 0.000000
0.000099 0.000372 0.000000
0.000101 0.000380 0.000000
0.000100 0.000392 0.000000
0.000100 0.000399 0.000000
0.000104 0.000408 0.000000
0.000100 0.000418 0.000000
0.000100 0.000436 0.000000
0.000110 0.000443 0.000000
0.000097 0.000445 0.000000
0.000107 0.000460 0.000000
0.000098 0.000467 0.000000
0.000095 0.000481 0.000000
0.000106 0.000491 0.000000
0.000101 0.000494 0.000000
0.000643 0.000874 0.000000
0.000651 0.000880 0.000000
0.000674 0.000899 0.000000
0.000759 0.000877 0.000000
0.000773 0.000868 0.000000
0.000777 0.000858 0.000000
0.000798 0.000854 0.000000
0.000790 0.000850 0.000000
0.000813 0.000849 0.000000
0.000822 0.000840 0.000000
0.000110 0.000300 0.000000
0.000110 0.000310 0.000000
0.000109 0.000321 0.000000
0.000110 0.000329 0.000000
0.000111 0.000339 0.000000
0.000111 0.000350 0.000000
0.000109 0.000358 0.000000
0.000112 0.000369 0.000000
0.000110 0.000378 0.000000
0.000111 0.000389 0.000000
0.000112 0.000399 0.000000
0.000110 0.000414 0.000000
0.000116 0.000422 0.000000
0.000107 0.000427 0.000000
0.000112 0.000433 0.000000
0.000106 0.000450 0.000000
0.000115 0.000461 0.000000
0.000111 0.000471 0.000000
0.000116 0.000480 0.000000
0.000111 0.000493 0.000000
0.000119 0.000492 0.000000
0.000600 0.000819 0.000000
0.000565 0.000736 0.000000
0.000708 0.000893 0.000000
0.000732 0.000884 0.000000
0.000722 0.000880 0.000000
[...]
POINT_DATA 6231
SCALARS density float 1
LOOKUP_TABLE default
4411.701716
4424.877656
4420.946258
4423.623560
4427.082823
4426.827495
4423.012163
4422.450461
4428.709988
4430.183742
4426.162558
4429.953224
4427.421421
4430.343229
4432.188129
4442.177575
4423.843732
4430.955625
4412.612462
4424.358721
4411.403420
4424.004359
4428.472707
4433.377173
4442.490416
4419.278379
4399.528932
4430.878394
4450.741119
4453.771933
4418.212244
4412.778213
4418.177345
4430.007420
4426.479231
4421.024077
4423.022912
4426.944229
4432.623467
4426.858486
4428.548146
4423.691693
4435.910637
4425.425052
4437.859636
4415.138413
4424.026208
4409.446966
4447.071209
4461.864774
4459.628314
4416.462529
4409.143271
4412.621075
4433.757988
4505.418708
4395.071894
4400.854552
4426.170384
4407.312212
4459.505154
4446.006304
4417.027753
4433.018063
4427.691943
4416.122853
4434.331234
4428.015040
4422.796506
4434.376979
4413.302933
4434.955353
4427.751701
4430.635969
4417.142081
4440.391225
4412.633665
4482.503213
4399.982867
4450.271513
4351.742921
4450.027445
4421.004861
4421.527153
4426.991838
4413.246434
4513.407162
4325.587452
4365.707359
4417.802096
4416.512921
4418.464860
4399.358379
4427.632786
4429.748403
4414.367787
4436.603213
4434.928247
4427.445918
4428.541982
4425.243497
4432.330325
4438.538983
4407.562735
4441.509192
4417.708713
4446.855637
4398.502430
4435.310606
4386.414063
4458.140028
4370.028793
4554.917362
4370.330505
4431.600741
4456.749266
4429.719207
4487.334989
4341.639562
4486.829778
4466.504057
4402.272103
4485.843411
4442.774048
4431.875325
4424.451448
4435.422761
4444.936682
4408.263884
4435.371084
4435.074912
4430.675800
4424.209930
4427.207590
4418.688589
4451.725780
4404.321442
4442.358781
4421.743018
4444.877123
4390.868106
4509.750062
4307.735869
4420.061686
4384.021761
4433.391355
4421.467111
4427.269781
4423.792492
4480.460354
4434.170902
4404.714771
4493.750669
4437.989457
4415.288669
4424.334445
4425.399879
4431.181583
4412.035579
4447.427471
4453.523718
4406.491532
4439.291988
4418.987168
4435.881107
4429.195287
4422.168906
4422.111600
4452.577740
4374.396379
4480.965886
4365.516935
4472.081490
4357.807701
4536.953657
4382.740523
4446.399229
4426.813393
4452.504427
4412.876043
4442.426582
4443.361007
4387.507277
4395.697807
4411.802926
4417.193094
4428.201516
4439.585974
4427.879017
4441.050446
4424.369202
4412.275288
4440.888946
4445.102287
4405.927423
4438.911040
4419.732372
4442.553887
4418.483893
4428.529652
4424.097332
4460.851127
4402.928111
4518.133000
4383.320386
4479.718960
4432.742323
4418.551546
4398.340765
4415.209882
4459.044673
4467.011094
4429.901626
4403.777910
4423.236345
4420.506786
4426.041673
4428.544533
4428.217886
4407.002682
4440.804161
4421.368460
4441.168861
4440.337906
4402.879074
4438.569421
4448.975344
4393.107741
4427.387071
4410.608558
4441.613376
4430.416717
4453.623429
4443.195312
4447.455539
4447.990337
4412.918217
4390.385730
4489.595503
4449.896111
4437.508228
4452.398162
4430.728275
4432.678434
4458.043107
4439.069448
4453.029681
4410.156435
4423.008823
4433.952092
4438.467255
4413.031306
4418.428049
4427.420323
4402.840061
4443.284854
4431.544183
4423.419343
4419.236644
4437.615250
4412.315255
4439.702788
4468.235895
4391.115053
4454.920494
4450.020937
4367.678823
4465.088416
4414.872411
4435.320773
4417.252059
4418.456019
4438.285237
4370.049374
4468.307074
4418.495802
4399.240784
4438.972715
4435.931344
4432.765094
4423.446991
4428.122735
4421.937312
4433.370362
4436.171342
4422.335963
4443.078941
4406.206198
4446.394055
4451.636925
4392.485062
4426.760435
4455.966876
4419.963785
4390.062939
4433.515379
4434.655646
4431.189408
4425.979463
4415.437001
4425.137200
4436.010561
4422.206720
4474.969775
4399.255484
4392.855196
4449.540585
4434.805756
4431.129815
4416.828103
4429.675743
4423.821680
4431.496404
4437.744040
4417.775035
4420.941189
4436.728557
4413.939714
4437.730384
4427.692617
4424.306564
4449.204772
4426.761964
4383.714531
4456.813827
4447.971957
4420.641665
4459.523826
4412.821256
4438.134173
4418.746764
4423.799375
4431.870499
4421.857493
4437.234068
4460.679366
4371.597764
4399.336865
4474.978297
4450.649384
4421.046928
4424.318325
4443.713046
4432.702014
4420.343483
4436.126900
4435.408486
4430.391073
4433.057941
4438.853037
4423.847069
4425.817455
4444.325495
4397.199565
4445.255232
4426.623925
4426.908244
4467.652237
4389.679844
4459.087566
4401.936750
4409.181761
4431.014901
4431.110036
4438.695502
4402.081483
4431.086259
4472.467665
4451.644760
4409.598361
4425.764553
4452.608753
4435.099027
4429.295491
4414.142717
4438.871676
4429.136593
4416.399003
4417.723680
4441.601504
4400.676780
4441.580248
4423.571056
4415.025744
4452.460812
4435.252224
4430.302299
4376.694983
4439.678364
4392.108762
4436.671576
4432.954250
4394.787011
4441.199952
4421.494869
4429.252435
4450.290195
4450.098167
4416.361504
4339.898584
4461.229644
4389.398370
4416.312002
4435.160761
4436.103914
4435.196159
4447.387493
4407.996600
4440.280076
4440.720604
4421.960181
4432.617647
4426.500526
4432.573513
4411.031730
4430.364760
4445.264562
4406.462497
4442.470065
4394.275730
4455.774228
4493.290565
4419.420580
4436.854327
4435.121876
4414.453117
4418.226780
4435.827619
4427.592494
4444.250275
4475.712024
4475.416662
4486.075673
4451.613737
4434.486183
4435.768944
4425.757941
4409.475319
4442.663685
4426.054539
4412.895835
4422.415659
4441.731310
4399.464054
4424.584221
4443.085134
4415.200379
4407.663712
4442.644208
4380.864089
4417.889785
4509.400555
4572.939294
4385.203051
4374.739137
4412.384016
4417.841865
4453.282117
4454.478028
4383.783743
4453.122567
4407.864196
4402.907505
4405.990063
4448.464253
4436.734196
4431.532133
4437.257377
4446.038934
4429.324691
4413.081098
4426.305195
4461.477481
4408.609020
4424.895538
4445.654107
4420.526591
4442.063434
4429.272473
4447.408892
4413.713686
4484.190007
4355.622015
4331.817510
4487.552017
4395.341510
4413.908634
4437.564950
4425.806034
4491.018927
4443.125467
4408.806833
4441.496975
4390.378324
4425.496762
4412.560086
4433.821349
4429.289481
4428.628960
4412.159052
4437.398260
4429.438992
4418.297107
4404.580799
4420.341903
4457.381788
4407.612417
4411.758232
4446.710114
4380.628061
4441.710075
4447.659777
4395.883846
4490.054211
4478.150307
4422.380073
4406.313350
4425.107483
4446.653588
4419.957350
4381.877419
4449.041185
4449.479213
4415.093806
4401.037770
4432.583353
4428.718794
4431.055061
4429.796036
4439.456609
4434.619126
4441.525859
4418.436634
4432.874469
4438.691302
4428.214170
4400.291248
4466.966200
4428.706628
4406.222276
4469.264192
4415.200823
4430.925092
4385.799089
4489.923363
4350.646145
4368.052024
4424.679794
4425.593603
4441.113806
4437.678873
4400.542172
4438.913276
4418.203191
4448.839118
4461.112956
4437.513030
4436.017782
4433.929702
4427.561541
4422.825123
4432.036199
4424.778005
4435.585072
4433.744510
4403.563072
4436.860328
4454.852826
4411.410112
4423.803369
4423.945383
4424.038488
4410.901901
4456.190268
4350.947647
4463.517391
4401.592756
4444.583813
4391.599738
4431.620127
4430.977118
4444.912474
4459.320076
4407.183024
4463.415000
4454.815534
4412.569738
4414.531628
4422.418164
4430.484593
4425.743756
4435.150497
4433.519607
4428.931650
4439.779571
4424.434066
4443.341417
4413.698420
4411.726552
4428.055495
4442.053933
4423.078692
4432.234377
4415.881492
4453.054803
4385.125589
4458.150704
4430.574984
4573.308092
4375.684069
4485.232856
4430.721098
4437.860520
4432.454449
4397.967643
4453.854536
4399.350889
4414.981869
4430.032522
4410.785159
4427.612498
4434.494088
4428.314143
4424.177053
4427.170976
4426.932000
4419.289783
4437.021881
4419.433327
4430.268977
4436.593067
4411.048145
4413.114868
4446.037886
4409.875777
4453.005854
4453.435605
4466.815108
4365.313801
4381.211691
4552.416589
4408.228193
4428.128217
4456.869692
4433.322715
4381.306455
4419.858143
4442.592196
4467.816013
4406.994964
4404.219695
4431.489244
4433.560438
4424.169704
4433.453943
4435.769122
4433.836741
4426.390463
4413.936112
4420.801345
4438.550395
4401.189161
4450.519804
4453.765718
4427.385627
4388.688846
4449.667268
4417.588743
4450.362880
4398.462814
4458.403759
4413.282527
4446.606038
4414.982779
4428.146104
4436.595496
4427.181297
4403.573104
4452.006603
4355.199834
4420.533473
4449.379562
4428.872931
4425.718597
4432.508641
4435.858812
4412.422001
4420.587355
4428.307564
4448.493796
4414.141567
4430.577323
4420.111707
4407.716799
4471.943480
4393.412123
4405.934804
4462.532429
4374.056326
4403.577358
4429.698778
4447.441072
4420.854915
4428.091596
4438.985073
4439.590776
4414.495833
4439.481322
4477.098006
4374.945662
4480.462806
4362.959360
4424.979182
4428.959708
4433.418240
4429.691027
4422.308518
4431.407997
4448.386378
4416.149018
4404.370137
4409.985853
4444.527366
4402.443702
4436.483861
4438.532869
4433.654563
4435.271631
4402.584043
4440.651691
4423.639479
4405.042753
4439.107503
4420.184285
4420.751044
4473.334103
4401.554196
4432.936843
4470.808412
4443.536713
4365.685333
4445.405032
4408.591880
4457.666868
4426.676573
4428.299279
4422.356737
4432.202078
4418.634294
4413.545454
4426.365839
4437.249527
4436.519387
4422.965347
4410.993733
4441.691505
4408.440579
4415.322435
4408.458122
4431.789220
4401.269464
4459.655625
4441.234016
4490.300545
4411.341957
4406.848313
4454.722176
4392.189275
4435.678574
4438.517590
4458.208252
4424.984073
4462.041943
4436.514251
4444.225855
4429.202230
4432.675977
4426.175110
4435.373615
4424.401333
4431.853934
4423.891075
4400.691272
4410.322314
4431.909874
4444.156136
4433.444430
4418.983780
4430.494335
4443.558953
4447.354164
4393.034596
4464.193285
4363.255184
4409.466214
4433.388211
4404.645522
4457.205822
4444.249681
4416.244266
4410.664344
4418.569206
4425.209919
4396.736984
4424.406525
4412.807402
4423.520619
4433.070116
4421.794573
4424.339892
4412.844837
4435.630129
4408.238737
4444.759273
4447.736944
4405.031869
4403.365416
4445.257363
4420.649071
4428.297648
4409.136392
4425.200123
4434.668340
4465.349130
4411.673237
4447.366360
4421.448669
4530.568033
4419.001935
4370.963333
4439.779593
4451.092031
4417.758171
4441.868265
4498.480350
4421.985982
4447.850839
4427.056973
4434.497814
4422.380982
4438.697672
4437.722755
4424.728796
4428.156915
4420.435648
4389.947089
4445.525220
4438.293592
4433.032762
4400.501630
4445.942193
4414.343230
4461.146577
4387.391744
4478.135254
4405.446186
4427.581273
4422.124918
4417.433791
4425.486014
4430.750619
4438.378316
4437.145196
4421.744530
4434.097010
4395.369366
4379.557330
4436.917339
4427.938709
4429.328686
4425.271328
4422.209118
4420.021814
4437.984668
4429.731239
4425.860137
4441.436878
4436.978688
4391.058364
4438.848033
4436.432761
4450.856006
4419.027163
4436.427714
4410.732811
4453.840714
4432.873079
4431.903550
4413.220949
4418.073353
4421.337122
4426.026618
4496.418129
4403.748247
4418.373566
4443.891988
4379.645563
4435.230211
4413.037605
4424.503248
4425.803723
4432.465338
4435.637772
4442.107525
4420.243539
4416.766896
4431.143406
4403.444538
4416.799196
4451.184644
4427.052139
4421.230924
4395.377419
4448.296066
4429.103578
4396.559089
4361.008358
4391.991391
4460.094395
4447.410912
4410.350635
4411.064155
4401.228214
4457.685081
4401.987555
4430.403456
4461.535942
4463.718704
4428.672921
4459.934047
4434.898994
4433.921879
4424.298555
4419.424228
4416.074932
4440.327531
4438.889909
4420.320509
4435.597965
4418.646216
4434.674779
4401.153344
4449.183194
4431.576694
4419.523218
4435.566011
4417.033102
4490.823496
4454.210939
4437.187840
4445.901070
4503.918471
4441.629930
4421.023183
4448.600444
4434.832372
4422.340993
4432.159807
4419.352524
4419.621433
4411.196150
4425.841040
4427.072386
4431.641096
4442.956511
4438.328707
4429.944367
4415.644078
4413.700015
4450.279185
4417.395234
4417.888744
4437.787899
4430.643449
4416.534070
4424.977804
4447.256682
4384.257754
4442.885770
4391.467034
4373.957354
4432.543814
4433.285431
4465.917603
4413.554222
4486.093725
4381.135245
4417.239658
4419.707436
4455.873835
4360.437799
4423.880975
4429.523504
4431.122703
4433.045843
4408.882670
4432.231419
4432.728262
4432.562021
4441.572784
4391.234297
4440.297184
4433.943723
4423.408772
4408.624326
4460.255644
4425.379942
4447.493947
4405.788994
4383.147789
4473.646449
4466.483879
4448.718934
4399.776724
4409.529822
4447.273525
4428.073609
4428.105002
4376.182139
4468.626972
4429.086833
4452.279860
4422.560099
4438.856807
4431.198320
4425.466494
4438.126970
4435.031635
4423.213526
4403.542037
4420.049037
4432.003819
4439.926383
4392.471345
4448.183482
4429.242464
4429.591973
4389.637722
4434.540432
4450.553787
4458.765897
4345.982044
4472.537085
4459.121084
4473.372149
4495.322172
4426.997458
4462.586524
4455.490210
4450.423337
4433.905618
4393.205289
4393.705568
4435.909317
4432.592316
4425.301246
4423.131476
4420.109575
4413.813864
4448.138936
4405.851305
4443.578650
4407.975625
4419.410237
4425.551614
4433.770710
4404.053799
4444.387577
4416.474092
4436.396527
4378.118708
4445.989119
4311.777716
4502.740687
4510.563257
4423.771510
4411.969740
4528.731214
4362.573757
4433.687561
4380.367334
4468.135675
4356.459731
4442.636262
4441.607857
4429.391802
4434.087283
4435.066231
4426.636711
4435.691058
4425.830838
4431.229517
4413.635162
4434.436918
4418.616809
4424.390530
4403.852912
4428.502392
4428.121966
4402.854549
4454.676219
4398.204733
4452.943730
4457.277823
4504.743296
4431.789231
4424.492661
4367.110056
4419.093793
4419.591567
4434.489818
4443.189892
4468.941961
4443.160706
4378.358506
4452.011491
4421.993414
4428.063043
4425.942688
4422.622618
4418.508224
4419.167244
4431.320119
4423.909614
4412.750509
4429.119268
4423.830735
4437.154782
4411.815289
4432.330063
4441.746034
4430.775482
4435.987887
4443.109574
4440.067523
4469.705451
4612.270252
4431.118766
4527.379231
4421.403897
4426.412184
4466.934260
4385.419263
4422.883972
4455.854878
4432.446525
4413.791970
4424.783971
4432.497183
4427.090477
4435.050107
4424.121345
4420.759027
4433.714346
4445.135759
4420.362707
4438.782698
4419.047888
4409.525390
4431.554003
4436.061499
4394.203629
4428.172276
4407.591010
4412.728517
4424.179508
4427.777056
4400.139360
4426.157807
4456.480295
4413.188461
4440.767212
4462.431514
4363.392579
4374.715453
4496.450191
4467.854728
4412.595021
4424.741632
4430.188677
4407.222693
4424.470062
4432.670430
4443.645591
4395.942525
4443.932829
4413.805621
4437.269489
4412.652493
4441.093489
4429.393503
4433.006950
4429.597005
4440.026164
4411.075246
4427.439406
4460.418272
4455.186353
4422.884875
4488.176516
4378.447375
4401.644134
4432.116688
4450.469928
4479.335892
4436.078794
4374.479818
4416.699140
4396.812372
4423.715010
4426.958294
4430.608282
4449.510889
4415.084546
4415.654335
4418.317391
4440.526494
4401.298972
4440.285533
4420.481197
4428.329112
4419.394912
4426.954351
4413.924030
4431.336426
4439.154385
4355.049181
4433.056620
4488.185314
4410.138441
4493.530208
4444.860602
4414.272581
4458.653497
4448.139362
4413.118770
4529.420572
4370.129570
4459.519921
4412.007254
4421.603489
4433.322457
4412.945418
4417.318303
4433.350587
4430.663986
4410.174309
4430.661874
4441.798399
4426.546358
4402.702821
4406.949025
4402.726032
4431.592028
4425.565575
4441.797033
4403.767190
4401.294606
4439.611165
4437.591796
4437.849417
4439.747539
4448.771031
4430.710755
4461.425482
4429.294989
4465.603101
4412.441660
4362.471421
4386.773620
4420.410502
4420.858135
4430.700805
4430.093937
4429.233574
4435.585257
4407.791403
4449.413520
4415.501461
4442.462734
4411.508498
4411.017349
4465.564257
4410.617135
4420.281665
4414.677708
4428.708173
4464.511040
4397.414463
4435.444775
4449.150519
4415.835621
4422.472406
4450.078829
4396.305515
4389.356524
4468.103340
4411.278583
4398.971413
4458.715354
4470.339788
4416.406701
4426.572776
4418.657726
4416.824102
4423.025849
4411.187321
4453.772698
4398.744966
4438.838641
4411.881352
4425.252125
4390.794299
4436.835329
4434.198703
4435.672972
4398.194258
4452.206519
4398.482910
4424.233778
4378.787587
4426.727262
4416.348478
4463.408220
4425.908525
4471.893809
4436.958052
4410.637956
4405.334479
4387.462969
4459.599290
4353.840935
4420.071831
4421.465551
4422.116039
4437.282604
4433.778679
4404.660426
4449.421673
4409.666539
4428.876068
4422.489825
4429.202241
4416.839569
4424.154183
4423.612868
4420.675720
4425.586289
4406.385994
4410.112852
4453.352582
4434.565240
4503.514799
4431.895456
4448.186048
4449.110566
4436.319110
4473.566332
4478.688956
4471.042056
4462.529105
4464.365334
4412.989881
4398.375994
4423.429685
4426.233005
4413.201778
4417.767815
4438.991566
4396.764030
4432.279325
4424.383952
4427.939079
4412.354950
4424.209999
4429.130924
4400.921950
4428.925430
4430.578373
4384.455773
4421.685140
4396.804012
4355.994127
4451.225110
4435.470824
4431.471241
4417.234921
4467.082313
4442.025897
4421.266220
4449.141451
4421.640510
4449.743804
4440.066854
4411.154615
4417.294822
4423.034273
4435.799345
4414.929281
4443.569723
4426.409061
4422.313349
4410.475967
4421.388911
4451.637236
4422.762764
4434.481001
4438.797721
4442.030178
4457.208947
4441.258525
4373.895528
4446.206017
4476.356194
4456.026399
4414.148205
4419.576425
4449.363568
4445.863928
4451.748614
4448.542890
4444.054526
4381.994208
4449.509176
4379.898349
4458.360636
4420.481014
4432.347781
4428.917084
4418.993682
4399.534429
4451.779995
4427.398424
4433.743101
4401.955628
4442.893504
4423.266977
4428.320167
4392.769141
4415.676883
4402.612517
4456.727341
4416.876722
4498.478112
4399.246511
4321.315855
4380.799664
4465.808686
4468.457793
4434.882869
4437.427509
4456.044024
4453.174371
4351.696000
4433.229943
4424.218289
4381.999335
4436.446400
4427.102875
4405.738992
4432.222628
4441.295260
4407.852654
4417.817502
4425.981138
4399.617239
4436.476896
4410.774662
4438.427073
4450.047087
4451.007046
4427.980635
4422.845629
4459.690674
4394.694188
4401.476275
4544.870538
4394.285165
4413.951234
4467.280405
4430.376497
4458.067486
4442.189708
4426.784435
4470.997251
4476.863418
4391.406344
4424.371986
4425.466018
4424.733025
4445.702359
4426.564298
4394.399610
4410.221509
4412.057667
4418.052523
4408.549469
4416.826683
4419.567068
4411.352101
4394.784899
4437.866817
4433.079893
4420.955262
4429.610673
4455.417619
4405.580844
4433.324928
4469.726158
4542.551705
4490.500024
4462.941410
4506.882741
4433.698958
4432.102652
4458.804899
4470.971153
4440.573828
4477.835919
4426.583533
4427.676232
4424.153338
4416.248208
4436.367652
4450.635801
4424.322979
4429.633686
4431.189606
4407.878766
4443.222865
4430.669641
4432.088843
4428.494318
4402.256643
4421.660943
4413.561229
4427.442051
4446.757384
4442.029948
4568.328513
4401.909417
4451.767347
4493.713366
4474.730607
4464.804481
4421.252690
4394.494107
4387.164039
4358.809425
4357.368605
4427.312775
4437.874228
4406.953616
4432.103428
4426.535358
4397.007942
4446.601544
4409.522274
4433.927505
4433.858820
4417.950672
4419.235878
4403.942476
4445.677747
4415.441246
4423.859869
4390.573452
4397.356705
4448.227702
4380.145966
4467.210590
4420.647525
4455.953722
4418.068599
4431.257544
4444.511385
4420.049410
4425.562495
4468.447843
4416.592127
4440.678460
4424.124531
4415.676307
4436.637982
4417.772828
4410.929932
4430.273910
4420.404248
4411.576735
4415.574058
4434.814278
4402.765788
4437.834027
4391.817256
4445.800390
4413.060443
4440.910490
4383.682097
4448.524402
4428.126203
4413.248999
4445.594073
4462.557473
4467.102717
4466.403319
4398.025825
4442.027250
4445.283831
4416.750413
4440.080531
4404.548380
4420.984188
4431.675113
4423.929643
4424.165884
4441.395298
4441.492113
4386.468170
4444.546525
4427.445638
4423.409140
4411.630843
4430.628612
4414.745287
4429.488451
4436.317820
4421.826796
4439.885090
4434.046662
4466.665973
4505.094035
4349.805560
4409.284686
4463.053029
4500.082290
4468.034315
4414.565506
4484.467236
4457.460917
4432.481350
4439.242495
4426.976582
4383.815662
4418.804821
4423.815481
4417.365047
4396.950632
4423.837275
4423.325032
4446.580070
4431.613397
4398.617602
4434.179694
4412.785796
4439.479450
4400.096727
4416.466690
4398.767400
4403.426281
4429.176079
4430.798424