# vtk DataFile Version 2.0
mfree iwf
ASCII

DATASET UNSTRUCTURED_GRID
POINTS 6231 float
0.000000 0.000300 0.000000
0.000000 0.000310 0.000000
0.000000 0.000320 0.000000
0.000000 0.000330 0.000000
0.000000 0.000340 0.000000
0.000001 0.000350 0.000000
0.000001 0.000360 0.000000
0.000001 0.000370 0.000000
0.000001 0.000380 0.000000
0.000001 0.000391 0.000000
0.000001 0.000401 0.000000
0.000001 0.000411 0.000000
0.000001 0.000421 0.000000
0.000001 0.000431 0.000000
0.000001 0.000441 0.000000
0.000002 0.000451 0.000000
0.000002 0.000461 0.000000
0.000002 0.000471 0.000000
0.000002 0.000480 0.000000
0.000002 0.000491 0.000000
0.000004 0.000500 0.000000
0.000013 0.000511 0.000000
0.000013 0.000521 0.000000
0.000013 0.000531 0.000000
0.000013 0.000541 0.000000
0.000013 0.000551 0.000000
0.000013 0.000562 0.000000
0.000013 0.000572 0.000000
0.000013 0.000582 0.000000
0.000013 0.000593 0.000000
0.000013 0.000608 0.000000
0.000010 0.000300 0.000000
0.000010 0.000310 0.000000
0.000010 0.000320 0.000000
0.000010 0.000330 0.000000
0.000010 0.000340 0.000000
0.000010 0.000350 0.000000
0.000011 0.000360 0.000000
0.000011 0.000370 0.000000
0.000011 0.000380 0.000000
0.000011 0.000390 0.000000
0.000011 0.000400 0.000000
0.000011 0.000410 0.000000
0.000011 0.000420 0.000000
0.000011 0.000431 0.000000
0.000011 0.000440 0.000000
0.000011 0.000451 0.000000
0.000012 0.000460 0.000000
0.000012 0.000471 0.000000
0.000013 0.000480 0.000000
0.000011 0.000491 0.000000
0.000013 0.000498 0.000000
0.000022 0.000510 0.000000
0.000021 0.000525 0.000000
0.000022 0.000533 0.000000
0.000023 0.000545 0.000000
0.000022 0.000555 0.000000
0.000022 0.000566 0.000000
0.000022 0.000577 0.000000
0.000021 0.000588 0.000000
0.000021 0.000598 0.000000
0.000020 0.000607 0.000000
0.000020 0.000300 0.000000
0.000020 0.000310 0.000000
0.000020 0.000320 0.000000
0.000020 0.000330 0.000000
0.000020 0.000340 0.000000
0.000020 0.000350 0.000000
0.000021 0.000360 0.000000
0.000021 0.000370 0.000000
0.000021 0.000380 0.000000
0.000021 0.000390 0.000000
0.000021 0.000400 0.000000
0.000021 0.000410 0.000000
0.000021 0.000420 0.000000
0.000021 0.000430 0.000000
0.000021 0.000440 0.000000
0.000021 0.000451 0.000000
0.000022 0.000460 0.000000
0.000021 0.000470 0.000000
0.000022 0.000480 0.000000
0.000023 0.000490 0.000000
0.000023 0.000499 0.000000
0.000029 0.000513 0.000000
0.000031 0.000522 0.000000
0.000032 0.000533 0.000000
0.000032 0.000543 0.000000
0.000032 0.000554 0.000000
0.000032 0.000564 0.000000
0.000031 0.000575 0.000000
0.000031 0.000586 0.000000
0.000030 0.000597 0.000000
0.000031 0.000607 0.000000
0.000030 0.000300 0.000000
0.000030 0.000310 0.000000
0.000030 0.000320 0.000000
0.000030 0.000330 0.000000
0.000030 0.000340 0.000000
0.000030 0.000350 0.000000
0.000031 0.000360 0.000000
0.000031 0.000370 0.000000
0.000031 0.000380 0.000000
0.000031 0.000390 0.000000
0.000031 0.000400 0.000000
0.000031 0.000410 0.000000
0.000031 0.000420 0.000000
0.000031 0.000430 0.000000
0.000032 0.000440 0.000000
0.000031 0.000450 0.000000
0.000032 0.000460 0.000000
0.000032 0.000470 0.000000
0.000032 0.000480 0.000000
0.000032 0.000490 0.000000
0.000033 0.000500 0.000000
0.000037 0.000509 0.000000
0.000040 0.000523 0.000000
0.000041 0.000535 0.000000
0.000041 0.000545 0.000000
0.000041 0.000556 0.000000
0.000041 0.000567 0.000000
0.000041 0.000578 0.000000
0.000040 0.000587 0.000000
0.000040 0.000597 0.000000
0.000040 0.000607 0.000000
0.000040 0.000300 0.000000
0.000040 0.000310 0.000000
0.000040 0.000320 0.000000
0.000040 0.000330 0.000000
0.000040 0.000340 0.000000
0.000040 0.000350 0.000000
0.000041 0.000360 0.000000
0.000041 0.000370 0.000000
0.000041 0.000380 0.000000
0.000041 0.000390 0.000000
0.000041 0.000400 0.000000
0.000041 0.000410 0.000000
0.000041 0.000420 0.000000
0.000041 0.000430 0.000000
0.000041 0.000440 0.000000
0.000042 0.000450 0.000000
0.000042 0.000460 0.000000
0.000042 0.000470 0.000000
0.000042 0.000480 0.000000
0.000042 0.000490 0.000000
0.000044 0.000500 0.000000
0.000046 0.000512 0.000000
0.000048 0.000522 0.000000
0.000050 0.000533 0.000000
0.000051 0.000545 0.000000
0.000050 0.000555 0.000000
0.000050 0.000566 0.000000
0.000050 0.000576 0.000000
0.000050 0.000587 0.000000
0.000050 0.000597 0.000000
0.000050 0.000607 0.000000
0.000050 0.000300 0.000000
0.000050 0.000310 0.000000
0.000050 0.000320 0.000000
0.000050 0.000330 0.000000
0.000050 0.000340 0.000000
0.000050 0.000350 0.000000
0.000051 0.000360 0.000000
0.000051 0.000370 0.000000
0.000051 0.000380 0.000000
0.000051 0.000390 0.000000
0.000051 0.000400 0.000000
0.000051 0.000410 0.000000
0.000051 0.000420 0.000000
0.000051 0.000430 0.000000
0.000051 0.000440 0.000000
0.000052 0.000450 0.000000
0.000052 0.000460 0.000000
0.000052 0.000470 0.000000
0.000052 0.000480 0.000000
0.000052 0.000490 0.000000
0.000053 0.000500 0.000000
0.000054 0.000510 0.000000
0.000057 0.000521 0.000000
0.000058 0.000534 0.000000
0.000059 0.000545 0.000000
0.000060 0.000556 0.000000
0.000060 0.000567 0.000000
0.000059 0.000577 0.000000
0.000060 0.000587 0.000000
0.000060 0.000597 0.000000
0.000060 0.000607 0.000000
0.000060 0.000300 0.000000
0.000060 0.000310 0.000000
0.000060 0.000320 0.000000
0.000060 0.000330 0.000000
0.000060 0.000340 0.000000
0.000060 0.000350 0.000000
0.000061 0.000360 0.000000
0.000061 0.000370 0.000000
0.000061 0.000380 0.000000
0.000061 0.000390 0.000000
0.000061 0.000400 0.000000
0.000061 0.000410 0.000000
0.000061 0.000420 0.000000
0.000061 0.000430 0.000000
0.000061 0.000440 0.000000
0.000062 0.000450 0.000000
0.000062 0.000460 0.000000
0.000062 0.000470 0.000000
0.000062 0.000480 0.000000
0.000062 0.000490 0.000000
0.000063 0.000500 0.000000
0.000064 0.000510 0.000000
0.000065 0.000522 0.000000
0.000067 0.000533 0.000000
0.000068 0.000544 0.000000
0.000069 0.000555 0.000000
0.000069 0.000566 0.000000
0.000070 0.000576 0.000000
0.000070 0.000587 0.000000
0.000070 0.000597 0.000000
0.000070 0.000607 0.000000
0.000070 0.000300 0.000000
0.000070 0.000310 0.000000
0.000070 0.000320 0.000000
0.000070 0.000330 0.000000
0.000070 0.000340 0.000000
0.000070 0.000350 0.000000
0.000070 0.000360 0.000000
0.000071 0.000370 0.000000
0.000071 0.000380 0.000000
0.000071 0.000390 0.000000
0.000071 0.000400 0.000000
0.000071 0.000410 0.000000
0.000071 0.000420 0.000000
0.000071 0.000430 0.000000
0.000071 0.000440 0.000000
0.000072 0.000450 0.000000
0.000072 0.000460 0.000000
0.000072 0.000470 0.000000
0.000072 0.000480 0.000000
0.000072 0.000490 0.000000
0.000073 0.000500 0.000000
0.000073 0.000511 0.000000
0.000074 0.000521 0.000000
0.000076 0.000532 0.000000
0.000077 0.000544 0.000000
0.000077 0.000555 0.000000
0.000078 0.000565 0.000000
0.000079 0.000576 0.000000
0.000079 0.000586 0.000000
0.000079 0.000597 0.000000
0.000080 0.000607 0.000000
0.000080 0.000300 0.000000
0.000080 0.000310 0.000000
0.000080 0.000320 0.000000
0.000080 0.000330 0.000000
0.000080 0.000340 0.000000
0.000080 0.000350 0.000000
0.000080 0.000360 0.000000
0.000081 0.000370 0.000000
0.000081 0.000380 0.000000
0.000081 0.000390 0.000000
0.000081 0.000400 0.000000
0.000081 0.000410 0.000000
0.000081 0.000420 0.000000
0.000081 0.000430 0.000000
0.000081 0.000440 0.000000
0.000082 0.000450 0.000000
0.000082 0.000460 0.000000
0.000082 0.000470 0.000000
0.000082 0.000480 0.000000
0.000082 0.000490 0.000000
0.000083 0.000500 0.000000
0.000083 0.000510 0.000000
0.000084 0.000521 0.000000
0.000085 0.000532 0.000000
0.000086 0.000542 0.000000
0.000087 0.000553 0.000000
0.000087 0.000565 0.000000
0.000088 0.000575 0.000000
0.000089 0.000586 0.000000
0.000089 0.000596 0.000000
0.000090 0.000607 0.000000
0.000090 0.000300 0.000000
0.000090 0.000310 0.000000
0.000090 0.000320 0.000000
0.000090 0.000330 0.000000
0.000090 0.000340 0.000000
0.000090 0.000350 0.000000
0.000090 0.000360 0.000000
0.000091 0.000370 0.000000
0.000091 0.000380 0.000000
0.000091 0.000390 0.000000
0.000091 0.000400 0.000000
0.000091 0.000410 0.000000
0.000091 0.000420 0.000000
0.000091 0.000430 0.000000
0.000091 0.000440 0.000000
0.000091 0.000450 0.000000
0.000092 0.000460 0.000000
0.000092 0.000470 0.000000
0.000092 0.000480 0.000000
0.000092 0.000490 0.000000
0.000092 0.000500 0.000000
0.000093 0.000511 0.000000
0.000093 0.000521 0.000000
0.000094 0.000531 0.000000
0.000095 0.000542 0.000000
0.000096 0.000553 0.000000
0.000096 0.000564 0.000000
0.000097 0.000575 0.000000
0.000098 0.000585 0.000000
0.000099 0.000596 0.000000
0.000099 0.000606 0.000000
0.000100 0.000300 0.000000
0.000100 0.000310 0.000000
0.000100 0.000320 0.000000
0.000100 0.000330 0.000000
0.000100 0.000340 0.000000
0.000100 0.000350 0.000000
0.000100 0.000360 0.000000
0.000101 0.000370 0.000000
0.000101 0.000380 0.000000
0.000101 0.000390 0.000000
0.000101 0.000400 0.000000
0.000101 0.000410 0.000000
0.000101 0.000420 0.000000
0.000101 0.000430 0.000000
0.000101 0.000440 0.000000
0.000101 0.000450 0.000000
0.000102 0.000460 0.000000
0.000102 0.000470 0.000000
0.000102 0.000480 0.000000
0.000102 0.000490 0.000000
0.000102 0.000500 0.000000
0.000103 0.000510 0.000000
0.000103 0.000520 0.000000
0.000103 0.000531 0.000000
0.000104 0.000541 0.000000
0.000105 0.000552 0.000000
0.000106 0.000563 0.000000
0.000106 0.000574 0.000000
0.000107 0.000585 0.000000
0.000108 0.000595 0.000000
0.000109 0.000606 0.000000
0.000110 0.000300 0.000000
0.000110 0.000310 0.000000
0.000110 0.000320 0.000000
0.000110 0.000330 0.000000
0.000110 0.000340 0.000000
0.000110 0.000350 0.000000
0.000110 0.000360 0.000000
0.000111 0.000370 0.000000
0.000111 0.000380 0.000000
0.000111 0.000390 0.000000
0.000111 0.000400 0.000000
0.000111 0.000410 0.000000
0.000111 0.000420 0.000000
0.000111 0.000430 0.000000
0.000111 0.000440 0.000000
0.000111 0.000450 0.000000
0.000112 0.000460 0.000000
0.000112 0.000470 0.000000
0.000112 0.000480 0.000000
0.000112 0.000490 0.000000
0.000112 0.000500 0.000000
0.000112 0.000510 0.000000
0.000112 0.000521 0.000000
0.000113 0.000531 0.000000
0.000113 0.000541 0.000000
0.000114 0.000552 0.000000
[...]
POINT_DATA 6231
SCALARS density float 1
LOOKUP_TABLE default
4391.532013
4422.983625
4421.938107
4422.654601
4424.103771
4424.264127
4425.123450
4425.603207
4425.938098
4426.791407
4426.740890
4427.886999
4427.420593
4429.530901
4428.192334
4432.574796
4427.616134
4437.424649
4414.389657
4454.997696
4372.666642
4668.407652
4467.417736
4598.421138
4504.111939
4531.014776
4525.309679
4519.750577
4523.234339
4549.501331
4483.040284
4399.729015
4418.469723
4419.830700
4419.771112
4422.820660
4422.530921
4423.958218
4424.523711
4425.151912
4426.312273
4426.028312
4428.380367
4426.981557
4430.573714
4427.524855
4433.645469
4425.102886
4434.136550
4441.475604
4448.656925
4401.187882
4421.581316
4433.963643
4469.760266
4460.626437
4450.341526
4450.637530
4449.632760
4438.318251
4396.361380
4450.433316
4406.786620
4419.485216
4420.098070
4419.611053
4423.562500
4422.685869
4424.457535
4425.394267
4425.158356
4427.791194
4425.812162
4430.687695
4425.997565
4434.454911
4425.609135
4440.032747
4424.729311
4445.248334
4415.032140
4467.648095
4449.826459
4475.999706
4514.725365
4469.781865
4468.928919
4476.698367
4463.592007
4464.868638
4456.980782
4470.274327
4453.211420
4411.281261
4421.929897
4420.119137
4421.919175
4423.671427
4423.390197
4425.302959
4425.859885
4426.000830
4428.442945
4426.924910
4430.862097
4428.021839
4434.158208
4429.782543
4436.598183
4433.587520
4434.979718
4447.570720
4439.147445
4457.275700
4470.950139
4457.493303
4477.721094
4472.291061
4463.043161
4461.611259
4457.313914
4447.844660
4447.802436
4447.984405
4415.694206
4423.556565
4421.511803
4423.479290
4423.865430
4424.806496
4425.935847
4426.193765
4427.390602
4428.250279
4428.641681
4430.380233
4431.053192
4431.729744
4434.352913
4434.041610
4438.692550
4439.541616
4440.632391
4435.323261
4455.472131
4452.657629
4469.819160
4465.479143
4457.571752
4460.149985
4456.760507
4448.139414
4454.586760
4451.834731
4450.758589
4418.081334
4424.612118
4423.141554
4424.043237
4425.026786
4425.720636
4426.309626
4427.103061
4428.313031
4428.237719
4430.416491
4429.919500
4432.317187
4432.614747
4434.884844
4436.721612
4437.772937
4439.284937
4443.365814
4447.827623
4454.663720
4462.830746
4466.588589
4462.708397
4469.040644
4461.088029
4457.930729
4458.315080
4454.461619
4452.142665
4449.253294
4420.829856
4425.757589
4424.557584
4425.241308
4426.252795
4426.029934
4427.547324
4427.748075
4428.719138
4429.240943
4430.568609
4430.889585
4432.413668
4433.747634
4434.472416
4436.391598
4439.278670
4440.512000
4439.620026
4440.588379
4444.406355
4450.510533
4451.186665
4458.357341
4454.379295
4452.031127
4454.652890
4452.194909
4451.036378
4451.949505
4448.977131
4423.012999
4426.693780
4425.477238
4426.212360
4426.906679
4427.063875
4428.316838
4428.049750
4429.485858
4429.991641
4430.442513
4431.970294
4432.545479
4433.353522
4435.678084
4436.866618
4437.225962
4438.583650
4439.444141
4443.437017
4450.097415
4453.273804
4455.701649
4456.136470
4455.352557
4459.805027
4456.348183
4457.180874
4455.481086
4453.256028
4449.963111
4424.795168
4427.553364
4426.742340
4427.352560
4427.732829
4427.945339
4428.653859
4429.111241
4429.995155
4430.152966
4431.469069
4431.743158
4432.751789
4434.086116
4434.484938
4435.752198
4436.427637
4437.590516
4436.758028
4438.505084
4439.628068
4443.968014
4447.072254
4449.859307
4451.295474
4450.387063
4450.514168
4453.547475
4450.936509
4452.905137
4450.899224
4426.372247
4428.361952
4427.552576
4428.016566
4428.352786
4428.714660
4429.400961
4429.617818
4430.273604
4430.803343
4431.653104
4431.981005
4432.993967
4433.678196
4434.125763
4435.278510
4435.494523
4436.279418
4436.606736
4439.962967
4441.734009
4447.850372
4447.571900
4449.893120
4450.078973
4453.819790
4454.753826
4454.162968
4454.738111
4454.512427
4451.941816
4427.735654
4429.070706
4428.394170
4428.948582
4429.248871
4429.386683
4429.869092
4430.131031
4430.938038
4431.277661
4431.617430
4432.524179
4432.918300
4433.165890
4434.157127
4434.339393
4434.075431
4435.089008
4434.679630
4435.253303
4435.992730
4440.367308
4441.516586
4446.780351
4447.275965
4450.310348
4448.863344
4452.199238
4451.498458
4454.192297
4452.769444
4428.916055
4429.667822
4429.159084
4429.615943
4429.648643
4429.928230
4430.473230
4430.815991
4431.115728
4431.465618
4432.297300
4432.431004
4432.819019
4433.693194
4433.341334
4433.476277
4434.028805
4434.223619
4434.016077
4436.482993
4438.065330
4441.378693
4443.477853
4447.617301
4446.915510
4450.655752
4450.882872
4454.700242
4452.932942
4455.645134
4453.558536
4429.967062
4430.247228
4429.819460
4430.250550
4430.323932
4430.723363
4430.917746
4431.053494
4431.657337
4432.073585
4432.294808
4432.668270
4433.248076
4433.231738
4433.346339
4434.017192
4433.257665
4433.180655
4433.571898
4434.284099
4434.006064
4437.325459
4439.667746
4443.449933
4445.276019
4449.681573
4448.771755
4451.792991
4452.419760
4455.428921
4454.051496
4430.869795
4430.730749
4430.397795
4430.857170
4430.823189
4431.026163
4431.299240
4431.717425
4432.047117
4432.190707
4432.568860
4433.143661
4433.179769
4433.450281
4433.913024
4433.596908
4433.450268
4434.260785
4433.912214
4434.435888
4435.903865
4438.991986
4440.370469
4444.436016
4446.278467
4448.469474
4450.070219
4453.829775
4454.104197
4455.674403
4454.537804
4431.664546
4431.171323
4430.981521
4431.344077
4431.275560
4431.647906
4431.860262
4432.064458
4432.202609
4432.663539
4433.116239
4433.137220
4433.395024
4434.031721
4433.755362
4434.035015
4434.562043
4434.080926
4433.784493
4434.661233
4434.939085
4435.951105
4437.912266
4441.627182
4443.861063
4447.905485
4450.598116
4452.039456
4453.589946
4455.286043
4454.727289
4432.382944
4431.566374
4431.439990
4431.810486
4431.733766
4432.062477
4432.082123
4432.383704
4432.786952
4433.054087
4433.057624
4433.531596
4433.989575
4433.936446
4434.165434
4434.854115
4434.362241
4434.755943
4435.652946
4435.630748
4435.882944
4437.652264
4439.609036
4441.924516
4444.879169
4448.270116
4450.128992
4452.780918
4455.178635
4454.878615
4454.603447
4433.019449
4431.916315
4431.883435
4432.265587
4432.117655
4432.417713
4432.575038
4432.912189
4432.959795
4433.195929
4433.602981
4433.998798
4433.915509
4434.365623
4434.860287
4434.750369
4435.082549
4435.982613
4435.450004
4435.952277
4437.125676
4437.637567
4438.282823
4440.738628
4443.869064
4446.585775
4450.270157
4452.555697
4453.350922
4454.539294
4454.205630
4433.578407
4432.226056
4432.290699
4432.606903
4432.468674
4432.857165
4432.857744
4433.085733
4433.291709
4433.727822
4433.863207
4434.016924
4434.391726
4434.924050
4434.793360
4435.300910
4435.931422
4435.810049
4436.372740
4437.808183
4437.716451
4438.703839
4440.554166
4442.348796
4444.257950
4446.866430
4449.757009
4451.260443
4453.522192
4453.960029
4453.542415
4434.096025
4432.510033
4432.644995
4432.969469
4432.822284
4433.158615
4433.148283
4433.528105
4433.683120
4433.879573
4434.015823
4434.539699
4434.789058
4434.910542
4435.296981
4435.972083
4435.839960
4436.520408
4437.387183
4437.309301
4437.999410
4439.754195
4440.274454
4441.380461
4443.506355
4445.899715
4448.055890
4450.501007
4452.334720
4452.816962
4452.711739
4434.557251
4432.758243
4432.958215
4433.281595
4433.103057
4433.458750
4433.486397
4433.786686
4433.805872
4434.199709
4434.489017
4434.757391
4434.817570
4435.397981
4435.769326
4435.924174
4436.400735
4437.295266
4437.218426
4438.168751
4439.579274
4439.790444
4440.768040
4442.870090
4444.016606
4445.454946
4447.320760
4449.150755
4450.558533
4452.077971
4451.683981
4434.968930
4432.979006
4433.263227
4433.559301
4433.372678
4433.775873
4433.712542
4434.022030
4434.187934
4434.540130
4434.560288
4434.935183
4435.309161
4435.714338
4435.762139
4436.411359
4436.910464
4437.119440
4437.751829
4438.852620
4438.753647
4439.818182
4441.424566
4441.920619
4442.824447
4444.595550
4445.994861
4447.703298
4449.337117
4450.764897
4450.399980
4435.341706
4433.177948
4433.513958
4433.807396
4433.620398
4434.003585
4433.943790
4434.335748
4434.362518
4434.645640
4434.869948
4435.346636
4435.416412
4435.764648
4436.208782
4436.752054
4436.857216
4437.631512
4438.301140
4438.615533
4439.435358
4440.924390
4440.971483
4442.043262
4443.618336
4444.422543
4445.181348
4446.631745
4447.776836
4449.180481
4449.065015
4435.675431
4433.354885
4433.746505
4434.039595
4433.838648
4434.238478
4434.181791
4434.519052
4434.548252
4434.990287
4435.098443
4435.384279
4435.604350
4436.189768
4436.378344
4436.734257
4437.240729
4437.900619
4438.047807
4438.920053
4439.722843
4440.010002
4440.784692
4442.415078
4442.498029
4443.453906
4444.694066
4445.650899
4446.638913
4447.983135
4447.646041
4435.969195
4433.504997
4433.951673
4434.236801
4434.021571
4434.445024
4434.353606
4434.716032
4434.784782
4435.125841
4435.171803
4435.673913
4435.890610
4436.223215
4436.431760
4437.099834
4437.420193
4437.820775
4438.443299
4439.239052
4439.441899
4440.458561
4441.436574
4441.790677
4442.484303
4443.979868
4444.247269
4445.217875
4446.173462
4447.254650
4445.811157
4436.225767
4433.642934
4434.134185
4434.409890
4434.200363
4434.624400
4434.518890
4434.914093
4434.908428
4435.272074
4435.433379
4435.829171
4435.881816
4436.398314
4436.730650
4437.141980
4437.357504
4438.084418
4438.472550
4438.914304
4439.568252
4440.421389
4440.599921
4441.537479
4442.554283
4443.055717
4443.629378
4445.028082
4445.694147
4446.770887
4444.220679
4436.448331
4433.764995
4434.285042
4434.559661
4434.348741
4434.771709
4434.666297
4435.046171
4435.042308
4435.465738
4435.500288
4435.872044
4436.112064
4436.582701
4436.677734
4437.191494
4437.609439
4438.125382
4438.371252
4439.176784
4439.654154
4440.129230
4440.832369
4441.816866
4441.997273
4442.856094
4443.803545
4444.489622
4445.144596
4446.052952
4442.818184
4436.637736
4433.868731
4434.418271
4434.697415
4434.475896
4434.902839
4434.792607
4435.176053
4435.175208
4435.542415
4435.594566
4436.078851
4436.167576
4436.536077
4436.814079
4437.363665
4437.521725
4438.019203
4438.483175
4439.034782
4439.283536
4440.120689
4440.583894
4441.053798
4441.694300
4442.680501
4442.983895
4443.828019
4444.652759
4445.104132
4441.812133
4436.791188
4433.958796
4434.531532
4434.801478
4434.578935
4435.015535
4434.888078
4435.274828
4435.258232
4435.642303
4435.718526
4436.092026
4436.174259
4436.712162
4436.877623
4437.255583
4437.546881
4438.162059
4438.397946
4438.907974
4439.418597
4440.014787
4440.280729
4441.127084
4441.607044
4442.123459
4442.656448
4443.505564
4443.903612
4444.216420
4440.965741
4436.914115
4434.037717
4434.623259
4434.890464
4434.675188
4435.098836
4434.970174
4435.365926
4435.330562
4435.719395
4435.747229
4436.147941
4436.304331
4436.687703
4436.787472
4437.345947
4437.576543
4437.982092
4438.252513
4438.885603
4439.149253
4439.635695
4440.128483
4440.728548
4440.962760
4441.732011
4442.212197
4442.723231
4443.156720
4443.454244
4440.208001
4437.006214
4434.098265
4434.693192
4434.962599
4434.741856
4435.160994
4435.040264
4435.419727
4435.378378
4435.766829
4435.790834
4436.210687
4436.262014
4436.665461
4436.893602
4437.302807
4437.424030
4437.981764
4438.274199
4438.719620
4438.977737
4439.637935
4439.910637
4440.381808
4440.852099
4441.418916
4441.632341
4442.269743
4442.598598
4442.696920
4439.621311
4437.066106
4434.144958
4434.752319
4435.014629
4434.792852
4435.219239
4435.084920
4435.456126
4435.424166
4435.798627
4435.809511
4436.197761
4436.265041
4436.723052
4436.794655
4437.182413
4437.457352
4437.889084
4438.023379
4438.542663
4438.840934
4439.286179
4439.511067
4440.135185
4440.375182
4440.818690
4441.188672
4441.681603
4441.885012
4441.973773
4439.058291
4437.098657
4434.178465
4434.787086
4435.045822
4434.833884
4435.247367
4435.106596
4435.492924
4435.435872
4435.798528
4435.816404
4436.200239
4436.261154
4436.633550
4436.735677
4437.226087
4437.326487
4437.706163
4437.993745
4438.449044
4438.613417
4439.092096
4439.389220
4439.828052
4440.011024
4440.560686
4440.764004
4441.127409
4441.349127
4441.394686
4438.534928
4437.103860
4434.196286
4434.807073
4435.069026
4434.854907
4435.261651
4435.130681
4435.498260
4435.429935
4435.811393
4435.801441
4436.165215
4436.214393
4436.598728
4436.720138
4437.067754
4437.180998
4437.679912
4437.801605
4438.162419
4438.411703
4438.854838
4439.011743
4439.425072
4439.684205
4440.073247
4440.202223
4440.654529
4440.785717
4440.762730
4438.089761
4437.083792
4434.201094
4434.812172
4435.069021
4434.856558
4435.267864
4435.126164
4435.486371
4435.430936
4435.784993
4435.759249
4436.140741
4436.172003
4436.537331
4436.605005
4436.976288
4437.156270
4437.489856
4437.608019
4438.088305
4438.231139
4438.587961
4438.791163
4439.209151
4439.340346
4439.694864
4439.874499
4440.188822
4440.254473
4440.236227
4437.644117
4437.041819
4434.192798
4434.801303
4435.057872
4434.854402
4435.253183
4435.108196
4435.479149
4435.400164
4435.744250
4435.739787
4436.085913
4436.094193
4436.460061
4436.531619
4436.898716
4436.972970
4437.316017
4437.520135
4437.833905
4437.939945
4438.366351
4438.489166
4438.823375
4438.961338
4439.320981
4439.411613
4439.695193
4439.775153
4439.737408
4437.247592
4436.978053
4434.172446
4434.778664
4435.033462
4434.830388
4435.223600
4435.087837
4435.441740
4435.355622
4435.717245
4435.678909
4436.007263
4436.045428
4436.378765
4436.423456
4436.758148
4436.860421
4437.231576
4437.305892
4437.625466
4437.819549
4438.125723
4438.212207
4438.580925
4438.686535
4438.972880
4439.037551
4439.323965
4439.340651
4439.255611
4436.891808
4436.897839
4434.143627
4434.743487
4434.994919
4434.800074
4435.189696
4435.047848
4435.394634
4435.320918
4435.653208
4435.607489
4435.960764
4435.956945
4436.263002
4436.332959
4436.648136
4436.728785
4437.024617
4437.122997
4437.484158
4437.538257
4437.831907
4437.976804
4438.259030
4438.316425
4438.605559
4438.668913
4438.896534
4438.897107
4438.827558
4436.548730
4436.803349
4434.103187
4434.695399
4434.948991
4434.758215
4435.135547
4434.999721
4435.345782
4435.258619
4435.582741
4435.556178
4435.865776
4435.852412
4436.190448
4436.218243
4436.503986
4436.589089
4436.882615
4436.982983
4437.253741
4437.328099
4437.669749
4437.712606
4437.979876
4438.067410
4438.309176
4438.336590
4438.543351
4438.530598
4438.445326
4436.242413
4436.694791
4434.054316
4434.642798
4434.891567
4434.704405
4435.080453
4434.948051
4435.276872
4435.193291
4435.519886
4435.469719
4435.768787
4435.783940
4436.068852
4436.079265
4436.394032
4436.445643
4436.712960
4436.781983
4437.053097
4437.143741
4437.391144
4437.436088
4437.724791
4437.746287
4437.974842
4438.001105
4438.185799
4438.166716
4438.071332
4435.964047
4436.576141
4433.999096
4434.578937
4434.822546
4434.648546
4435.013324
4434.878677
4435.206530
4435.127877
4435.428939
4435.382065
4435.690887
4435.668687
4435.941021
4435.989330
4436.250747
4436.277659
4436.563515
4436.617551
4436.879786
4436.923479
4437.176463
4437.243766
4437.464162
4437.486796
4437.718123
4437.714770
4437.879772
4437.850256
4437.750994
4435.711715
4436.448620
4433.936923
4434.508403
4434.751628
4434.583298
4434.933946
4434.814266
4435.128422
4435.042844
4435.342820
4435.302396
4435.576396
4435.558153
4435.848804
4435.846438
4436.092856
4436.155835
4436.397016
4436.425762
4436.684582
4436.716893
4436.968500
4436.981253
4437.201442
4437.239259
4437.416668
4437.413692
4437.577457
4437.537582
4437.450460
4435.485801
4436.313732
4433.869919
4434.432973
4434.670380
4434.508702
4434.854666
4434.739245
4435.033249
4434.964385
4435.251914
4435.196768
4435.471472
4435.462695
4435.709471
4435.709951
4435.984255
4435.991964
4436.220724
4436.275420
4436.504739
4436.523923
4436.760551
4436.771823
4436.993348
4436.993027
4437.169393
4437.169074
4437.308756
4437.266240
4437.172743
4435.279970
4436.173412
4433.798581
4434.350792
4434.584684
4434.433855
4434.765387
4434.654685
4434.945879
4434.878793
4435.143158
4435.103176
4435.369364
4435.335444
4435.586830
4435.600486
4435.822427
4435.830019
4436.089572
4436.092351
4436.308594
4436.337167
4436.550231
4436.555007
4436.752403
4436.747985
4436.920663
4436.898176
4437.038650
4436.998986
4436.908465
4435.091812
4436.028576
4433.723307
4434.264681
4434.495349
4434.350293
4434.670954
4434.573215
4434.848125
4434.779297
4435.046305
4435.003520
4435.244458
4435.224504
4435.472399
4435.450190
4435.680978
4435.707369
4435.911326
4435.914674
4436.157438
4436.149644
4436.353311
4436.357654
4436.542617
4436.537047
4436.689454
4436.668737
4436.805509
4436.754202
4436.668565
4434.918374
4435.880885
4433.645498
4434.175305
4434.401273
4434.264404
4434.577913
4434.482265
4434.745757
4434.689340
4434.940601
4434.888728
4435.137738
4435.111112
4435.329482
4435.323297
4435.556092
4435.537913
4435.751042
4435.775361
4435.963778
4435.956633
4436.170375
4436.150063
4436.325337
4436.310861
4436.457382
4436.432624
4436.557837
4436.514273
4436.438392
4434.755838
4435.730899
4433.565361
4434.082348
4434.305742
4434.176131
4434.477605
4434.388536
4434.648559
4434.587591
4434.827237
4434.787372
4435.020569
4434.979406
4435.211996
4435.199086
4435.395742
4435.396365
4435.615922
4435.593354
4435.788947
4435.804391
4435.972882
4435.957812
4436.133871
4436.105246
4436.250394
4436.218378
4436.340386
4436.297115
4436.219855
4434.601840
4435.579681
4433.484532
4433.987063
4434.208284
4434.084253
4434.377381
4434.296098
4434.542601
4434.483329
4434.724465
4434.674450
4434.895071
4434.868790
4435.084841
4435.052430
4435.267146
4435.262998
4435.437597
4435.434452
4435.636686
4435.610644
4435.778816
4435.779224
4435.923981
4435.897216
4436.038236
4435.999132
4436.119077
4436.074573
4436.005907
4434.448915
4435.428021
4433.401898
4433.889000
4434.109754
4433.991086
4434.275531
4434.197421
4434.436856
4434.383762
4434.609926
4434.558064
4434.785369
4434.745645
4434.946347
4434.933227
4435.129403
4435.101010
4435.294351
4435.294314
4435.449502
4435.441949
4435.616846
4435.589617
4435.733116
4435.712520
4435.838950
4435.799661
4435.914933
4435.866100
4435.799358
4434.294805
4435.275436
4433.318051
4433.790851
4434.010284
4433.895363
4434.172010
4434.099002
4434.332046
4434.276422
4434.496925
4434.452171
4434.662864
4434.619073
4434.829478
4434.800862
4434.976777
4434.973178
4435.147715
4435.122268
4435.291772
4435.288207
4435.422770
4435.407413
4435.551392
4435.513145
4435.639910
4435.596930
4435.706214
4435.657659
4435.590100
4434.137999
4435.122601
4433.233984
4433.691433
4433.908200
4433.799531
4434.068326
4433.998009
4434.223510
4434.170641
4434.388019
4434.336427
4434.542197
4434.507846
4434.696257
4434.663760
4434.853282
4434.834820
4434.984694
4434.987251
4435.142023
4435.112957
4435.261363
4435.249593
4435.365050
4435.336071
4435.461532
4435.405500
4435.512465
4435.459197
4435.384482
4433.979919
4434.969937
4433.149134
4433.591156
4433.806621
4433.703174
4433.961916
4433.896202
4434.116752
4434.064934
4434.273095
4434.224297
4434.429443
4434.384530
4434.565840
4434.548472
4434.711429
4434.687128
4434.854125
4434.842340
4434.971577
4434.965630
4435.104982
4435.070048
4435.193071
4435.163620
4435.269760
4435.218023
4435.318671
4435.258575
4435.182531
4433.823661
4434.816913
4433.064159
4433.491752
4433.703350
4433.604454
4433.856640
4433.794273
4434.006966
4433.957462
4434.161114
4434.114168
4434.306642
4434.266089
4434.447340
4434.416600
4434.571531
4434.565822
4434.707765
4434.686664
4434.834218
4434.818503
4434.938069
4434.915735
4435.032968
4434.991087
4435.095297
4435.043037
4435.131869
4435.068619
4434.988942
4433.676063
4434.664201
4432.980203
4433.392324
4433.598517
4433.507051
4433.751021
4433.689588
4433.898284
4433.852270
4434.047807
4434.000290
4434.187908
4434.152813
4434.316408
4434.290197
4434.449453
4434.426903
4434.561828
4434.560108
4434.684981
4434.658762
4434.793734
4434.761580
4434.863106
4434.830120
4434.921950
4434.865693
4434.952862
4434.882661
4434.801907
4433.537013
4434.511907
4432.896422
4433.293508
4433.494267
4433.408248
4433.643976
4433.587286
4433.789805
4433.744211
4433.934863
4433.891255
4434.070780
4434.033245
4434.194041
4434.174100
4434.313175
4434.296167
4434.439149