# vtk DataFile Version 2.0
mfree iwf
ASCII

DATASET UNSTRUCTURED_GRID
POINTS 6231 float
0.000000 0.000300 0.000000
0.000000 0.000310 0.000000
0.000000 0.000320 0.000000
0.000000 0.000330 0.000000
0.000000 0.000340 0.000000
0.000001 0.000350 0.000000
0.000001 0.000361 0.000000
0.000001 0.000371 0.000000
0.000001 0.000381 0.000000
0.000001 0.000391 0.000000
0.000001 0.000401 0.000000
0.000001 0.000411 0.000000
0.000001 0.000421 0.000000
0.000001 0.000431 0.000000
0.000002 0.000441 0.000000
0.000002 0.000451 0.000000
0.000002 0.000461 0.000000
0.000002 0.000471 0.000000
0.000002 0.000481 0.000000
0.000002 0.000492 0.000000
0.000006 0.000501 0.000000
0.000033 0.000512 0.000000
0.000033 0.000526 0.000000
0.000033 0.000533 0.000000
0.000033 0.000546 0.000000
0.000033 0.000553 0.000000
0.000033 0.000564 0.000000
0.000033 0.000574 0.000000
0.000033 0.000585 0.000000
0.000033 0.000597 0.000000
0.000033 0.000624 0.000000
0.000010 0.000300 0.000000
0.000010 0.000310 0.000000
0.000010 0.000320 0.000000
0.000010 0.000330 0.000000
0.000010 0.000340 0.000000
0.000011 0.000350 0.000000
0.000011 0.000360 0.000000
0.000011 0.000370 0.000000
0.000011 0.000381 0.000000
0.000011 0.000391 0.000000
0.000011 0.000401 0.000000
0.000011 0.000411 0.000000
0.000011 0.000421 0.000000
0.000011 0.000431 0.000000
0.000012 0.000441 0.000000
0.000012 0.000451 0.000000
0.000012 0.000460 0.000000
0.000011 0.000471 0.000000
0.000013 0.000480 0.000000
0.000010 0.000492 0.000000
0.000013 0.000498 0.000000
0.000040 0.000514 0.000000
0.000040 0.000531 0.000000
0.000042 0.000541 0.000000
0.000042 0.000554 0.000000
0.000042 0.000566 0.000000
0.000041 0.000578 0.000000
0.000041 0.000590 0.000000
0.000039 0.000603 0.000000
0.000038 0.000610 0.000000
0.000034 0.000619 0.000000
0.000020 0.000300 0.000000
0.000020 0.000310 0.000000
0.000020 0.000320 0.000000
0.000020 0.000330 0.000000
0.000021 0.000340 0.000000
0.000020 0.000350 0.000000
0.000021 0.000360 0.000000
0.000021 0.000371 0.000000
0.000021 0.000380 0.000000
0.000021 0.000390 0.000000
0.000021 0.000400 0.000000
0.000021 0.000411 0.000000
0.000022 0.000420 0.000000
0.000021 0.000431 0.000000
0.000022 0.000440 0.000000
0.000021 0.000451 0.000000
0.000023 0.000460 0.000000
0.000021 0.000471 0.000000
0.000023 0.000480 0.000000
0.000025 0.000494 0.000000
0.000020 0.000498 0.000000
0.000046 0.000522 0.000000
0.000051 0.000524 0.000000
0.000050 0.000538 0.000000
0.000051 0.000550 0.000000
0.000050 0.000561 0.000000
0.000050 0.000572 0.000000
0.000049 0.000583 0.000000
0.000048 0.000598 0.000000
0.000045 0.000612 0.000000
0.000047 0.000621 0.000000
0.000030 0.000300 0.000000
0.000030 0.000310 0.000000
0.000030 0.000320 0.000000
0.000030 0.000330 0.000000
0.000030 0.000340 0.000000
0.000030 0.000350 0.000000
0.000031 0.000360 0.000000
0.000030 0.000370 0.000000
0.000031 0.000380 0.000000
0.000030 0.000391 0.000000
0.000032 0.000400 0.000000
0.000030 0.000411 0.000000
0.000032 0.000420 0.000000
0.000030 0.000431 0.000000
0.000033 0.000440 0.000000
0.000030 0.000451 0.000000
0.000033 0.000459 0.000000
0.000030 0.000472 0.000000
0.000034 0.000478 0.000000
0.000029 0.000490 0.000000
0.000034 0.000499 0.000000
0.000043 0.000506 0.000000
0.000058 0.000531 0.000000
0.000057 0.000543 0.000000
0.000060 0.000555 0.000000
0.000058 0.000567 0.000000
0.000058 0.000581 0.000000
0.000056 0.000590 0.000000
0.000055 0.000601 0.000000
0.000057 0.000610 0.000000
0.000056 0.000621 0.000000
0.000040 0.000300 0.000000
0.000040 0.000310 0.000000
0.000040 0.000320 0.000000
0.000040 0.000330 0.000000
0.000040 0.000340 0.000000
0.000040 0.000350 0.000000
0.000041 0.000360 0.000000
0.000040 0.000370 0.000000
0.000041 0.000380 0.000000
0.000040 0.000390 0.000000
0.000041 0.000400 0.000000
0.000041 0.000411 0.000000
0.000042 0.000420 0.000000
0.000041 0.000430 0.000000
0.000042 0.000440 0.000000
0.000041 0.000450 0.000000
0.000042 0.000461 0.000000
0.000042 0.000470 0.000000
0.000042 0.000481 0.000000
0.000043 0.000491 0.000000
0.000044 0.000500 0.000000
0.000054 0.000511 0.000000
0.000065 0.000529 0.000000
0.000067 0.000540 0.000000
0.000067 0.000554 0.000000
0.000067 0.000566 0.000000
0.000066 0.000576 0.000000
0.000066 0.000590 0.000000
0.000066 0.000600 0.000000
0.000065 0.000611 0.000000
0.000065 0.000621 0.000000
0.000050 0.000300 0.000000
0.000050 0.000310 0.000000
0.000050 0.000320 0.000000
0.000050 0.000330 0.000000
0.000050 0.000340 0.000000
0.000050 0.000350 0.000000
0.000051 0.000360 0.000000
0.000051 0.000370 0.000000
0.000051 0.000380 0.000000
0.000051 0.000390 0.000000
0.000051 0.000400 0.000000
0.000051 0.000410 0.000000
0.000051 0.000420 0.000000
0.000052 0.000430 0.000000
0.000051 0.000440 0.000000
0.000052 0.000450 0.000000
0.000051 0.000460 0.000000
0.000053 0.000470 0.000000
0.000051 0.000480 0.000000
0.000054 0.000489 0.000000
0.000055 0.000501 0.000000
0.000060 0.000514 0.000000
0.000067 0.000521 0.000000
0.000074 0.000542 0.000000
0.000075 0.000555 0.000000
0.000076 0.000568 0.000000
0.000074 0.000580 0.000000
0.000075 0.000590 0.000000
0.000075 0.000600 0.000000
0.000075 0.000611 0.000000
0.000075 0.000621 0.000000
0.000060 0.000300 0.000000
0.000060 0.000310 0.000000
0.000060 0.000320 0.000000
0.000060 0.000330 0.000000
0.000060 0.000340 0.000000
0.000061 0.000350 0.000000
0.000061 0.000360 0.000000
0.000061 0.000370 0.000000
0.000061 0.000380 0.000000
0.000061 0.000390 0.000000
0.000061 0.000400 0.000000
0.000061 0.000410 0.000000
0.000061 0.000420 0.000000
0.000061 0.000430 0.000000
0.000061 0.000440 0.000000
0.000062 0.000450 0.000000
0.000061 0.000460 0.000000
0.000062 0.000470 0.000000
0.000062 0.000480 0.000000
0.000063 0.000491 0.000000
0.000064 0.000500 0.000000
0.000069 0.000509 0.000000
0.000076 0.000528 0.000000
0.000082 0.000542 0.000000
0.000083 0.000553 0.000000
0.000083 0.000566 0.000000
0.000084 0.000579 0.000000
0.000085 0.000589 0.000000
0.000085 0.000600 0.000000
0.000085 0.000611 0.000000
0.000085 0.000621 0.000000
0.000070 0.000300 0.000000
0.000070 0.000310 0.000000
0.000070 0.000320 0.000000
0.000070 0.000330 0.000000
0.000070 0.000340 0.000000
0.000071 0.000350 0.000000
0.000070 0.000360 0.000000
0.000071 0.000370 0.000000
0.000071 0.000380 0.000000
0.000071 0.000390 0.000000
0.000071 0.000400 0.000000
0.000071 0.000410 0.000000
0.000071 0.000420 0.000000
0.000072 0.000430 0.000000
0.000071 0.000440 0.000000
0.000072 0.000450 0.000000
0.000072 0.000460 0.000000
0.000072 0.000470 0.000000
0.000072 0.000480 0.000000
0.000073 0.000490 0.000000
0.000075 0.000500 0.000000
0.000076 0.000513 0.000000
0.000081 0.000523 0.000000
0.000086 0.000534 0.000000
0.000090 0.000553 0.000000
0.000091 0.000566 0.000000
0.000093 0.000577 0.000000
0.000093 0.000589 0.000000
0.000094 0.000599 0.000000
0.000094 0.000610 0.000000
0.000095 0.000620 0.000000
0.000080 0.000300 0.000000
0.000080 0.000310 0.000000
0.000080 0.000320 0.000000
0.000080 0.000330 0.000000
0.000080 0.000340 0.000000
0.000080 0.000350 0.000000
0.000081 0.000360 0.000000
0.000081 0.000370 0.000000
0.000081 0.000380 0.000000
0.000081 0.000390 0.000000
0.000081 0.000400 0.000000
0.000081 0.000410 0.000000
0.000081 0.000420 0.000000
0.000081 0.000430 0.000000
0.000081 0.000440 0.000000
0.000082 0.000450 0.000000
0.000082 0.000460 0.000000
0.000082 0.000470 0.000000
0.000082 0.000480 0.000000
0.000083 0.000490 0.000000
0.000083 0.000501 0.000000
0.000085 0.000510 0.000000
0.000089 0.000521 0.000000
0.000093 0.000540 0.000000
0.000097 0.000551 0.000000
0.000099 0.000564 0.000000
0.000101 0.000576 0.000000
0.000102 0.000588 0.000000
0.000103 0.000599 0.000000
0.000104 0.000609 0.000000
0.000105 0.000620 0.000000
0.000090 0.000300 0.000000
0.000090 0.000310 0.000000
0.000090 0.000320 0.000000
0.000090 0.000330 0.000000
0.000090 0.000340 0.000000
0.000091 0.000350 0.000000
0.000090 0.000360 0.000000
0.000091 0.000370 0.000000
0.000091 0.000380 0.000000
0.000091 0.000390 0.000000
0.000091 0.000400 0.000000
0.000091 0.000410 0.000000
0.000091 0.000420 0.000000
0.000091 0.000430 0.000000
0.000092 0.000440 0.000000
0.000092 0.000450 0.000000
0.000092 0.000460 0.000000
0.000092 0.000470 0.000000
0.000092 0.000480 0.000000
0.000092 0.000491 0.000000
0.000094 0.000500 0.000000
0.000095 0.000511 0.000000
0.000096 0.000524 0.000000
0.000099 0.000534 0.000000
0.000104 0.000545 0.000000
0.000106 0.000562 0.000000
0.000109 0.000573 0.000000
0.000110 0.000586 0.000000
0.000112 0.000597 0.000000
0.000113 0.000609 0.000000
0.000114 0.000619 0.000000
0.000100 0.000300 0.000000
0.000100 0.000310 0.000000
0.000100 0.000320 0.000000
0.000100 0.000330 0.000000
0.000100 0.000340 0.000000
0.000100 0.000350 0.000000
0.000100 0.000360 0.000000
0.000101 0.000370 0.000000
0.000101 0.000380 0.000000
0.000101 0.000390 0.000000
0.000101 0.000400 0.000000
0.000101 0.000410 0.000000
0.000101 0.000420 0.000000
0.000101 0.000430 0.000000
0.000101 0.000440 0.000000
0.000102 0.000450 0.000000
0.000102 0.000460 0.000000
0.000102 0.000470 0.000000
0.000102 0.000480 0.000000
0.000103 0.000490 0.000000
0.000103 0.000500 0.000000
0.000103 0.000511 0.000000
0.000105 0.000521 0.000000
0.000108 0.000533 0.000000
0.000110 0.000548 0.000000
0.000113 0.000559 0.000000
0.000117 0.000573 0.000000
0.000119 0.000584 0.000000
0.000121 0.000596 0.000000
0.000122 0.000607 0.000000
0.000124 0.000618 0.000000
0.000110 0.000300 0.000000
0.000110 0.000310 0.000000
0.000110 0.000320 0.000000
0.000110 0.000330 0.000000
0.000110 0.000340 0.000000
0.000110 0.000350 0.000000
0.000111 0.000360 0.000000
0.000111 0.000370 0.000000
0.000111 0.000380 0.000000
0.000111 0.000390 0.000000
0.000111 0.000400 0.000000
0.000111 0.000410 0.000000
0.000111 0.000420 0.000000
0.000111 0.000430 0.000000
0.000111 0.000440 0.000000
0.000112 0.000450 0.000000
0.000112 0.000460 0.000000
0.000112 0.000470 0.000000
0.000112 0.000480 0.000000
0.000112 0.000491 0.000000
0.000112 0.000501 0.000000
0.000113 0.000511 0.000000
0.000114 0.000521 0.000000
0.000116 0.000533 0.000000
0.000118 0.000543 0.000000
0.000121 0.000556 0.000000
[...]
POINT_DATA 6231
SCALARS density float 1
LOOKUP_TABLE default
4384.791437
4420.746535
4420.983449
4421.607713
4420.768253
4422.344977
4424.392800
4422.675113
4423.340469
4425.478776
4423.271437
4425.307905
4423.921324
4427.486828
4424.204248
4428.361121
4424.405352
4435.109338
4422.814545
4438.301288
4414.848909
4659.227382
4459.284128
4644.880831
4515.884404
4541.250686
4521.510554
4560.175818
4534.428491
4627.615339
4494.719526
4393.445419
4416.174650
4419.394915
4415.754392
4418.745202
4422.575952
4420.513043
4420.595867
4424.118300
4423.164982
4420.561766
4427.268450
4420.838638
4428.675199
4415.934657
4431.959607
4411.940809
4420.484743
4397.548062
4483.298691
4372.806768
4425.070664
4410.545127
4447.222266
4451.255849
4434.292462
4421.770804
4418.808427
4380.642566
4364.269408
4421.724487
4402.598955
4416.821621
4415.364230
4415.095162
4426.379072
4419.000242
4416.358079
4428.746316
4418.412101
4424.294828
4423.513433
4430.843899
4414.259631
4440.147983
4409.787425
4455.708527
4395.091476
4493.643605
4372.971824
4486.765097
4366.462459
4488.200636
4498.507894
4497.611843
4478.937588
4476.719564
4487.934180
4473.128295
4497.881360
4500.350244
4452.324378
4404.616630
4418.775469
4419.444418
4422.943199
4416.237856
4418.928352
4427.661546
4425.360868
4415.405775
4434.625397
4417.623537
4429.332465
4423.206149
4437.551054
4416.392499
4444.849969
4413.237911
4451.751785
4406.270006
4513.601158
4343.744707
4421.592048
4451.940894
4471.079544
4464.632771
4453.713947
4453.531197
4450.431383
4425.246430
4449.810702
4427.753068
4410.549602
4424.741637
4417.540674
4419.278388
4419.038971
4430.404033
4419.665545
4419.512210
4430.232502
4428.592993
4418.430176
4436.372701
4427.239377
4427.852690
4435.881985
4430.251077
4434.561437
4444.707034
4424.568897
4441.396417
4501.091491
4471.804053
4472.929099
4471.015930
4457.876011
4467.241587
4446.138995
4458.844308
4446.537977
4456.640213
4449.607815
4415.933885
4422.556531
4414.707289
4426.157579
4426.627270
4419.130080
4419.394902
4433.578819
4425.950294
4418.079129
4437.237145
4425.475055
4424.667989
4432.598419
4433.437905
4426.708437
4440.004711
4425.423237
4457.173909
4422.141295
4447.143354
4463.866319
4460.293245
4467.011250
4463.360558
4461.177170
4454.823737
4450.620267
4452.181781
4445.969845
4442.481288
4414.155801
4422.761414
4427.252855
4424.837970
4416.636881
4424.898247
4434.822461
4420.243717
4421.358547
4434.687449
4430.346120
4420.284647
4440.496217
4431.238071
4430.005853
4438.240583
4443.290887
4433.610955
4441.071461
4433.736842
4455.630628
4456.892825
4459.759734
4459.918428
4461.620578
4446.790229
4454.050891
4448.344643
4452.705860
4450.785777
4445.324545
4419.495124
4427.172297
4423.474501
4415.370209
4431.361535
4430.854610
4418.073649
4423.879163
4438.023592
4425.256128
4421.515776
4439.183136
4430.561202
4423.733278
4441.537130
4435.012391
4430.152371
4441.374915
4440.132665
4443.561640
4456.197289
4437.807112
4475.935531
4443.576750
4460.776117
4460.725000
4454.367370
4456.754800
4449.530081
4451.560006
4445.899717
4423.597169
4424.601250
4420.644666
4432.318829
4430.074704
4413.630252
4430.963426
4437.452946
4420.003166
4424.496909
4440.416569
4428.009887
4425.402329
4442.778720
4435.159025
4429.026317
4444.977918
4438.020740
4436.043305
4437.968519
4436.209804
4456.354643
4450.867698
4460.348215
4440.328425
4459.626360
4448.930144
4454.587341
4448.972899
4452.844679
4445.936034
4422.369439
4425.971340
4430.496119
4426.710263
4415.511366
4435.569330
4436.623704
4414.060276
4430.781279
4440.310895
4423.613841
4425.486801
4442.190603
4429.498019
4426.695961
4441.846022
4434.077037
4427.989394
4437.533130
4442.397413
4447.151423
4450.427791
4435.830919
4457.669950
4452.679732
4454.538156
4453.211831
4455.929461
4452.011224
4457.596215
4445.183296
4425.925669
4428.444808
4425.043944
4421.447106
4435.992450
4432.883503
4412.593163
4436.443025
4441.081030
4416.205142
4430.547483
4442.736770
4426.165219
4428.087917
4443.138400
4434.404583
4427.652480
4443.125815
4439.337901
4437.004420
4443.250460
4437.871917
4449.475404
4447.662332
4433.124238
4458.643770
4437.411729
4465.798678
4442.669999
4457.458707
4446.928951
4425.726624
4427.300222
4427.241871
4432.974529
4428.937983
4415.846081
4439.024279
4439.402741
4411.829412
4437.114979
4443.269147
4418.480082
4429.878975
4443.923189
4426.379784
4427.007863
4441.296723
4435.743311
4427.669166
4440.331854
4435.366738
4442.792641
4440.787360
4444.615970
4441.401621
4451.888324
4444.392197
4455.102709
4451.415303
4459.750916
4448.612342
4427.532583
4430.709141
4429.662086
4425.722888
4423.789613
4437.946778
4435.439501
4411.651558
4440.628043
4443.384278
4412.220090
4436.695516
4444.903349
4420.187085
4429.627437
4444.161772
4428.777712
4425.721047
4433.780340
4437.025294
4431.489498
4447.970774
4435.344702
4448.779670
4440.137829
4446.451361
4446.387150
4450.155498
4448.914970
4455.674647
4451.931912
4430.341594
4428.371471
4425.601105
4431.026726
4434.554951
4428.058483
4417.866787
4441.394377
4441.809616
4409.309813
4441.409157
4444.483930
4413.488006
4434.349082
4444.116286
4421.468345
4425.475040
4439.381703
4431.809720
4432.017201
4437.569471
4439.948687
4434.814205
4442.370693
4441.085281
4448.186354
4444.174736
4453.734626
4449.289877
4456.450443
4454.555096
4427.807043
4428.466080
4433.389191
4431.299710
4424.370056
4428.007858
4438.868859
4433.492899
4412.782039
4443.112807
4445.950647
4409.200425
4440.364872
4444.578666
4416.419334
4431.043847
4443.751825
4425.662374
4427.323090
4434.374259
4433.463188
4433.004940
4441.981105
4442.016467
4444.586726
4445.254248
4445.781255
4447.109105
4452.100921
4455.055386
4456.216451
4430.165857
4432.749419
4429.528128
4424.415254
4434.369675
4435.601985
4426.257908
4421.997967
4441.532760
4440.087139
4409.529582
4443.452152
4447.027079
4410.186042
4437.713951
4442.835028
4420.026192
4426.451734
4440.012797
4428.248195
4432.620649
4436.576633
4439.689514
4438.869231
4445.757417
4443.119885
4451.110846
4451.169802
4453.677833
4454.727290
4457.965491
4432.044034
4429.867732
4427.019916
4436.153458
4433.416749
4421.762074
4432.370871
4439.311166
4431.092073
4416.274059
4443.264991
4444.602399
4408.611519
4442.992941
4446.349110
4413.435925
4434.621217
4440.919042
4426.517308
4427.710833
4438.671743
4431.515806
4441.067234
4438.829129
4448.306398
4442.327504
4453.352540
4445.108115
4459.432222
4452.910860
4459.719730
4430.550068
4430.109287
4434.606752
4431.064361
4423.020237
4437.692878
4437.597431
4422.329408
4427.679848
4441.174473
4436.955434
4412.544855
4443.909200
4445.848635
4409.919646
4441.396974
4444.387317
4418.282415
4433.759931
4437.718482
4434.057333
4431.048787
4443.620790
4435.241578
4449.223684
4443.061975
4456.504905
4449.236592
4462.269075
4452.112362
4461.022021
4432.187913
4432.095905
4430.412318
4427.269840
4437.539685
4434.619762
4419.872307
4436.941515
4440.481408
4426.289612
4422.602752
4442.323490
4442.610821
4411.301701
4444.281301
4445.347994
4414.623269
4439.792233
4444.420778
4424.692384
4436.789663
4436.522727
4440.611891
4437.512936
4451.962864
4442.386011
4458.466404
4448.835695
4463.338111
4451.766901
4461.375719
4432.441384
4431.321788
4430.879830
4435.254071
4432.255649
4423.017113
4439.427095
4438.552763
4419.521345
4433.759412
4441.613885
4431.381988
4418.696978
4443.303197
4445.594853
4412.204012
4444.980637
4444.030834
4421.353589
4438.871319
4443.991377
4432.088910
4443.253069
4439.964368
4449.781881
4445.959404
4459.920715
4449.843144
4463.480094
4452.326226
4460.608452
4432.885940
4432.055982
4433.112854
4430.660736
4428.646091
4438.127672
4435.763294
4419.454584
4439.930799
4441.203949
4422.461997
4429.757899
4442.513306
4437.069777
4417.179213
4444.645282
4446.724340
4416.497542
4446.129473
4443.977050
4429.640215
4440.895407
4446.185729
4440.435270
4451.435326
4447.685988
4456.803465
4451.315161
4460.985821
4453.062620
4458.996765
4433.644952
4431.856051
4431.281693
4432.668663
4435.548539
4431.859488
4424.802367
4440.359514
4439.416849
4418.092769
4439.006575
4442.133596
4427.476614
4426.182232
4443.526504
4441.566985
4417.955476
4446.070150
4446.732526
4423.235965
4447.013482
4444.068202
4438.450428
4445.376503
4450.016331
4447.273093
4455.819133
4452.344372
4458.157941
4454.062713
4456.979259
4433.607589
4432.599972
4433.506780
4433.509919
4430.236975
4431.349774
4438.191099
4434.779642
4421.326702
4441.824620
4442.292732
4419.460667
4436.712197
4442.620660
4433.430137
4424.086968
4445.495774
4444.672777
4421.342459
4447.976054
4447.235715
4431.110084
4447.820331
4445.762218
4445.999485
4449.718768
4452.810216
4451.366986
4455.944899
4453.559009
4454.998548
4434.624109
4432.538164
4432.155969
4431.787181
4434.247996
4435.837597
4430.783768
4428.351414
4440.181503
4438.363309
4419.299383
4442.588724
4443.780216
4423.287279
4433.936222
4443.353504
4438.715892
4424.102436
4447.553787
4445.754623
4426.885251
4448.987299
4447.108431
4439.244219
4449.230551
4447.284106
4449.979893
4452.042464
4453.383034
4453.012085
4453.327996
4434.003394
4432.299091
4433.549251
4434.636181
4433.292142
4430.215140
4433.842268
4438.552710
4433.276672
4425.198890
4441.833465
4441.493088
4419.233376
4442.179681
4443.999604
4428.901203
4431.985714
4444.774219
4443.076152
4426.487739
4449.158131
4446.605250
4433.281300
4448.490908
4446.902526
4445.044030
4450.188973
4448.968120
4451.087735
4451.768807
4451.768996
4435.091326
4434.022090
4433.612865
4432.080180
4432.393316
4436.160772
4435.698632
4429.505497
4431.970796
4440.432323
4436.549111
4422.954404
4443.378803
4443.768218
4421.547340
4440.589546
4443.985022
4434.413968
4430.961849
4446.343043
4445.099691
4430.495876
4449.304755
4446.290026
4439.738710
4448.221698
4446.470078
4447.687651
4450.270837
4450.313633
4450.221133
4436.116461
4432.233329
4432.147196
4435.002159
4435.323115
4432.873984
4430.405452
4436.831834
4438.525544
4431.041549
4429.667565
4441.873316
4439.884490
4421.898783
4444.308913
4444.778625
4425.916358
4438.802660
4444.451952
4439.379266
4431.734708
4447.413473
4445.785441
4435.423166
4448.038126
4445.508477
4444.195160
4448.349489
4446.605874
4449.097748
4448.841875
4434.533897
4432.741198
4435.960343
4434.092271
4431.283196
4434.210661
4437.110515
4435.163800
4428.702221
4436.060507
4440.487687
4433.788959
4427.674407
4443.406446
4442.591808
4422.719089
4443.928185
4444.634595
4431.187050
4437.151712
4444.718445
4442.552493
4434.095283
4447.396324
4445.315068
4440.319218
4447.125010
4445.064438
4446.341657
4448.039028
4447.144111
4436.199640
4434.960770
4433.037332
4431.704440
4436.266189
4436.009282
4431.893222
4432.100829
4438.437260
4438.181029
4428.986085
4434.538908
4441.646031
4437.040007
4426.195442
4444.753107
4444.314238
4425.724167
4442.774241
4444.374492
4436.375843
4436.749024
4444.996895
4443.979631
4437.546548
4446.649181
4444.763445
4443.909457
4446.884565
4446.427072
4445.324764
4436.676654
4432.476681
4432.585388
4437.476665
4434.435454
4430.786495
4435.745399
4437.890335
4434.008840
4429.738621
4438.679076
4440.544290
4430.947162
4432.893148
4442.525430
4440.037132
4425.966422
4445.108520
4444.389607
4430.034829
4441.253783
4443.791451
4439.935851
4437.743931
4445.156452
4444.195765
4441.107233
4446.446611
4445.171696
4445.917494
4444.713245
4435.433938
4433.505050
4436.737102
4433.497726
4430.809784
4438.188174
4436.163637
4431.026998
4434.032454
4439.463317
4436.926711
4428.698617
4438.116574
4441.893040
4434.039900
4431.624215
4443.535338
4442.263548
4427.640289
4444.591663
4443.846759
4434.911749
4440.365770
4443.645384
4442.114431
4439.816560
4445.260319
4444.314555
4443.851355
4446.477877
4441.961340
4437.067774
4434.511805
4432.916872
4432.628888
4438.034672
4434.923880
4429.867644
4438.053466
4437.888938
4432.759381
4431.826747
4440.407939
4439.681613
4429.344886
4436.858694
4442.343779
4437.053412
4430.814622
4444.121742
4443.026421
4430.793517
4443.446987
4442.966930
4438.797710
4440.529935
4443.829494
4443.158913
4442.373520
4445.009203
4445.010810
4441.690509
4436.505472
4432.708374
4434.333454
4437.425939
4433.519296
4431.307903
4438.812620
4436.488477
4429.813366
4436.831804
4439.346575
4435.292201
4430.032166
4440.643196
4441.531893
4431.672879
4435.785493
4442.721296
4439.745934
4431.389834
4444.145398
4442.871001
4434.747532
4442.565973
4442.554883
4441.421632
4441.307837
4444.025276
4444.179984
4443.343530
4441.356671
4436.249577
4434.653194
4436.051368
4432.684625
4432.850121
4438.713248
4434.680108
4430.369135
4439.078366
4438.073287
4431.067006
4434.950069
4440.412394
4437.993008
4429.580230
4440.004967
4442.066351
4434.545955
4435.032452
4442.889303
4441.102940
4433.231944
4443.565468
4442.324473
4438.186094
4442.175112
4442.741786
4442.558749
4442.225414
4443.591459
4439.683237
4437.645129
4433.966783
4432.458159
4435.057493
4437.635257
4433.241245
4431.969065
4439.454563
4436.037678
4429.942997
4438.577373
4439.357318
4433.414806
4433.147289
4441.057865
4440.179729
4430.795141
4439.100618
4442.066468
4437.346600
4434.939974
4443.011717
4441.518258
4435.876863
4442.863939
4441.932439
4440.344079
4442.533739
4442.532667
4443.124510
4439.786686
4436.262263
4432.899228
4436.010654
4436.613643
4431.751046
4434.332264
4438.587927
4434.119279
4431.328727
4439.895933
4437.542476
4430.438851
4437.321430
4440.224609
4435.938369
4431.947372
4441.038475
4441.282016
4433.027890
4438.237043
4441.764221
4439.348612
4435.728901
4442.770893
4441.253321
4438.573907
4442.191511
4441.741088
4441.778879
4441.697963
4439.049083
4436.706041
4435.057377
4435.180608
4431.814408
4435.532329
4438.202340
4432.008723
4433.878082
4439.146716
4435.247801
4430.774389
4439.959753
4438.914044
4432.011511
4435.777801
4440.817611
4438.225731
4432.074056
4440.450923
4441.420053
4435.674853
4437.818963
4441.512153
4440.350171
4437.162427
4442.143411
4441.158821
4440.071340
4441.758031
4441.453375
4438.413200
4437.524864
4433.588277
4432.688744
4436.682982
4436.832027
4431.116540
4435.250397
4438.977130
4432.670378
4433.530802
4439.579899
4436.516129
4430.639471
4439.311333
4439.743597
4434.223423
4434.588206
4440.984452
4439.655766
4433.326640
4439.705337
4441.042185
4437.796644
4437.851971
4441.374959
4440.523611
4438.615193
4441.712226
4440.934099
4440.702369
4438.499597
4436.190492
4433.398825
4436.454704
4435.464227
4430.923407
4436.846239
4438.128632
4431.013128
4435.284129
4439.262896
4433.739386
4433.033523
4439.916835
4437.924225
4431.466701
4438.162114
4440.145253
4436.334495
4434.066208
4440.781963
4440.173804
4435.256148
4439.135187
4440.613829
4438.982613
4438.411283
4440.949339
4440.327612
4439.602518
4440.583338
4437.541851
4436.925298
4434.725992
4434.232063
4432.332441
4436.916907
4437.128175
4430.067346
4436.941906
4438.845743
4431.343315
4435.286358
4439.423804
4435.017232
4432.504191
4439.776825
4438.977625
4433.041132
4436.998091
4440.191438
4438.031516
4434.443754
4440.209260
4439.953799
4437.119528
4438.865636
4440.237218
4439.504891
4439.066991
4440.326034
4440.092028
4437.309054
4436.877527
4433.341203
4433.743869
4436.864176
4435.339413
4430.866433
4437.209233
4438.283920
4429.794759
4437.190965
4439.086864
4432.181066
4434.994790
4439.610417
4436.344071
4432.521571
4439.064558
4439.480330
4434.906530
4436.213754
4439.968117
4438.944756
4435.531773
4439.599504
4439.538888
4438.325317
4438.729830
4439.913521
4439.651521
4439.005259
4437.303039
4436.184152
4433.968071
4435.904787
4434.012785
4432.077016
4437.578294
4436.779979
4429.972111
4437.525551
4438.897931
4429.976076
4437.310889
4439.079327
4433.473339
4434.467585
4439.636548
4437.538180
4433.287894
4438.145985
4439.554042
4436.522831
4435.977937
4439.575571
4439.097330
4436.724008
4439.195726
4439.225792
4438.745874
4438.731399
4439.133504
4436.535229
4436.833987
4434.096389
4433.445469
4433.922243
4436.848708
4435.053626
4430.887033
4437.863615
4437.868973
4429.579002
4437.897877
4439.075584
4430.692757
4437.048421
4438.997678
4434.865681
4434.080702
4439.306844
4438.236866
4434.522185
4437.342924
4439.306950
4437.611579
4436.334402
4439.110893
4438.815102
4437.543926
4438.980039
4438.733802
4438.813105
4436.458094
4436.166831
4433.274274
4434.733236
4436.122730
4433.375270
4432.827784
4437.455728
4436.167504
4430.191505
4438.106792
4438.495379
4429.670447
4438.122152
4438.942777
4431.934776
4436.494968
4438.873017
4436.111734
4434.173744
4438.658430
4438.452427
4435.851221
4436.888091
4438.911030
4437.991829
4437.019805
4438.595524
4438.510998
4438.043225
4438.197207
4436.145263
4436.076590
4434.102232
4434.928141
4433.034307
4433.976275
4437.183166
4434.130433
4431.913198
4437.708634
4437.157485
4429.883569
4438.355580
4438.649406
4430.284579
4437.998959
4438.633302
4433.435715
4435.870911
4438.619694
4437.080056
4434.741771
4437.941420
4438.302053
4436.862247
4436.761765
4438.465765
4437.980767
4437.390643
4438.157440
4437.986036
4435.719534
4436.339403
4433.499571
4433.348409
4435.018977
4435.954255
4432.942133
4433.275255
4437.675628
4435.022108
4431.370497
4437.826890
4437.778427
4429.949582
4438.498238
4438.457731
4431.377223
4437.529490
4438.327241
4434.815953
4435.503401
4438.181909
4437.536850
4435.541297
4437.394468
4438.033492
4437.334030
4436.888441
4438.107903
4437.745281
4437.431058
4435.769281
4435.600894
4433.426095
4434.960438
4434.890275
4432.445450
4434.748998
4436.890274
4433.304383
4432.801249
4437.794663
4435.843797
4431.112441
4437.953569
4438.023071
4430.429420
4438.421963
4438.054782
4432.747031
4436.904734
4438.009977
4435.864137
4435.503500
4437.675521
4437.542836
4436.204167
4437.121987
4437.629545
4437.324461
4437.015782
4437.309919
4435.295486
4435.942291
4433.888030
4433.815353
4433.170244
4435.075041
4435.911245
4432.190656
4434.320561
4437.337782
4433.919840
4432.517563
4437.763634
4436.459976
4431.139880
4437.997426
4437.897780
4431.345881
4438.038621
4437.612648
4434.107614
4436.336371
4437.635944
4436.489898
4435.826902
4437.216061
4437.320238
4436.614144
4436.996787
4437.186478
4437.086024
4435.096028
4435.688516
4432.898168
4433.722957
4435.276870
4434.384094
4432.407118
4435.028437
4436.749546
4432.321729
4434.040861
4437.404980
4434.590501
4432.371408
4437.689838
4436.818289
4431.470131
4437.894060
4437.525832
4432.531546
4437.440696
4437.193873
4435.207565
4435.993834
4437.206511
4436.670681
4436.153595
4436.798854
4437.030980
4436.723234
4436.576098
4435.032876
4435.093705
4433.511456
4434.793261
4433.466466
4432.775766
4435.698662
4435.287201
4431.955384
4434.851121
4437.155299
4432.731355
4433.854403
4437.297133
4435.189915
4432.356894
4437.586145
4436.894506
4432.129637
4437.618709
4437.070862
4433.721214
4436.846569
4436.848682
4435.910562
4435.885939
4436.853617
4436.607328
4436.282594
4436.510988
4436.462218
4434.643051
4435.637442
4433.568549
4432.925402
4433.608897
4435.430742
4434.044413
4432.069835
4435.748299
4436.059095
4431.881634
4434.753321
4437.186212
4433.314142
4433.721839
4437.118306
4435.653413
4432.530745
4437.388399
4436.698712
4432.989408
4437.178721
4436.654141
4434.647173
4436.373313
4436.515897
4436.150660
4435.872495
4436.554506
4436.302033
4436.224859
4434.592534
4435.020985
4432.586994
4433.927597
4435.101906
4432.909830
4432.901208
4435.818884
4434.815786
4431.626005
4435.645025
4436.477285
4432.093068
4434.691454
4436.992195
4433.940453
4433.665612
4436.903771
4435.919516
4432.949306
4437.106001
4436.357049
4433.886052
4436.675825
4436.326239
4435.255910
4436.101779
4436.184353
4436.128235
4435.891426
4435.944302
4434.378199
4434.693949
4433.552323
4434.270031
4432.575345
4433.292619
4435.796001
4433.446236
4432.261117
4435.866402
4435.531892
4431.507071
4435.546538
4436.567231
4432.544861
4434.604455
4436.713059
4434.480481
4433.712520
4436.632734
4435.936998
4433.495042
4436.736234
4435.997409
4434.610623
4436.179350
4436.021406
4435.550771
4435.855318
4435.888607
4435.818463
4434.174968
4435.191199
4433.050134
4432.447953
4433.953209
4435.112726
4432.624702
4432.799644
4436.036660
4434.131192
4431.859765
4435.769695
4435.968764
4431.650243
4435.446450
4436.417408
4433.144883
4434.491396
4436.433530