# vtk DataFile Version 2.0
mfree iwf
ASCII

DATASET UNSTRUCTURED_GRID
POINTS 6231 float
0.000000 0.000300 0.000000
0.000000 0.000310 0.000000
0.000000 0.000320 0.000000
0.000000 0.000330 0.000000
0.000000 0.000340 0.000000
0.000000 0.000350 0.000000
0.000001 0.000360 0.000000
0.000001 0.000370 0.000000
0.000001 0.000380 0.000000
0.000001 0.000390 0.000000
0.000001 0.000400 0.000000
0.000001 0.000410 0.000000
0.000001 0.000420 0.000000
0.000001 0.000430 0.000000
0.000002 0.000440 0.000000
0.000002 0.000450 0.000000
0.000002 0.000460 0.000000
0.000002 0.000471 0.000000
0.000002 0.000480 0.000000
0.000002 0.000492 0.000000
0.000006 0.000501 0.000000
0.000413 0.000738 0.000000
0.000453 0.000807 0.000000
0.000422 0.000754 0.000000
0.000462 0.000819 0.000000
0.000478 0.000835 0.000000
0.000518 0.000864 0.000000
0.000525 0.000867 0.000000
0.000538 0.000869 0.000000
0.000550 0.000873 0.000000
0.000583 0.000888 0.000000
0.000010 0.000300 0.000000
0.000010 0.000310 0.000000
0.000010 0.000320 0.000000
0.000010 0.000330 0.000000
0.000010 0.000340 0.000000
0.000010 0.000350 0.000000
0.000011 0.000360 0.000000
0.000011 0.000370 0.000000
0.000011 0.000380 0.000000
0.000011 0.000390 0.000000
0.000011 0.000400 0.000000
0.000011 0.000410 0.000000
0.000011 0.000420 0.000000
0.000011 0.000430 0.000000
0.000012 0.000440 0.000000
0.000012 0.000451 0.000000
0.000012 0.000460 0.000000
0.000012 0.000472 0.000000
0.000013 0.000478 0.000000
0.000010 0.000492 0.000000
0.000013 0.000498 0.000000
0.000496 0.000843 0.000000
0.000507 0.000850 0.000000
0.000514 0.000855 0.000000
0.000521 0.000857 0.000000
0.000539 0.000860 0.000000
0.000548 0.000864 0.000000
0.000562 0.000869 0.000000
0.000572 0.000875 0.000000
0.000577 0.000877 0.000000
0.000579 0.000884 0.000000
0.000020 0.000300 0.000000
0.000020 0.000310 0.000000
0.000020 0.000320 0.000000
0.000020 0.000330 0.000000
0.000020 0.000340 0.000000
0.000020 0.000350 0.000000
0.000021 0.000360 0.000000
0.000021 0.000370 0.000000
0.000020 0.000380 0.000000
0.000022 0.000391 0.000000
0.000020 0.000400 0.000000
0.000022 0.000410 0.000000
0.000020 0.000420 0.000000
0.000023 0.000431 0.000000
0.000020 0.000440 0.000000
0.000024 0.000451 0.000000
0.000021 0.000460 0.000000
0.000022 0.000470 0.000000
0.000021 0.000481 0.000000
0.000024 0.000494 0.000000
0.000020 0.000497 0.000000
0.000474 0.000816 0.000000
0.000494 0.000836 0.000000
0.000502 0.000843 0.000000
0.000509 0.000843 0.000000
0.000521 0.000844 0.000000
0.000532 0.000854 0.000000
0.000557 0.000862 0.000000
0.000569 0.000868 0.000000
0.000582 0.000866 0.000000
0.000589 0.000868 0.000000
0.000030 0.000300 0.000000
0.000030 0.000310 0.000000
0.000030 0.000320 0.000000
0.000030 0.000330 0.000000
0.000030 0.000340 0.000000
0.000031 0.000350 0.000000
0.000030 0.000360 0.000000
0.000031 0.000370 0.000000
0.000031 0.000380 0.000000
0.000031 0.000390 0.000000
0.000031 0.000400 0.000000
0.000031 0.000411 0.000000
0.000031 0.000420 0.000000
0.000032 0.000430 0.000000
0.000031 0.000440 0.000000
0.000031 0.000450 0.000000
0.000031 0.000459 0.000000
0.000037 0.000473 0.000000
0.000030 0.000478 0.000000
0.000033 0.000488 0.000000
0.000032 0.000497 0.000000
0.000063 0.000500 0.000000
0.000492 0.000829 0.000000
0.000508 0.000830 0.000000
0.000534 0.000846 0.000000
0.000543 0.000843 0.000000
0.000544 0.000854 0.000000
0.000553 0.000850 0.000000
0.000562 0.000855 0.000000
0.000572 0.000857 0.000000
0.000592 0.000860 0.000000
0.000040 0.000300 0.000000
0.000040 0.000310 0.000000
0.000040 0.000320 0.000000
0.000040 0.000329 0.000000
0.000040 0.000340 0.000000
0.000040 0.000350 0.000000
0.000040 0.000360 0.000000
0.000041 0.000370 0.000000
0.000041 0.000380 0.000000
0.000041 0.000390 0.000000
0.000042 0.000399 0.000000
0.000041 0.000410 0.000000
0.000042 0.000420 0.000000
0.000040 0.000431 0.000000
0.000042 0.000439 0.000000
0.000043 0.000450 0.000000
0.000043 0.000460 0.000000
0.000037 0.000469 0.000000
0.000045 0.000478 0.000000
0.000043 0.000496 0.000000
0.000040 0.000498 0.000000
0.000400 0.000588 0.000000
0.000504 0.000825 0.000000
0.000519 0.000833 0.000000
0.000528 0.000832 0.000000
0.000530 0.000839 0.000000
0.000553 0.000839 0.000000
0.000573 0.000848 0.000000
0.000581 0.000844 0.000000
0.000583 0.000856 0.000000
0.000595 0.000851 0.000000
0.000050 0.000300 0.000000
0.000050 0.000310 0.000000
0.000050 0.000319 0.000000
0.000050 0.000331 0.000000
0.000050 0.000340 0.000000
0.000051 0.000350 0.000000
0.000051 0.000360 0.000000
0.000049 0.000370 0.000000
0.000052 0.000379 0.000000
0.000050 0.000390 0.000000
0.000053 0.000400 0.000000
0.000049 0.000411 0.000000
0.000053 0.000420 0.000000
0.000051 0.000430 0.000000
0.000054 0.000440 0.000000
0.000047 0.000451 0.000000
0.000055 0.000458 0.000000
0.000053 0.000470 0.000000
0.000056 0.000483 0.000000
0.000049 0.000488 0.000000
0.000050 0.000498 0.000000
0.000484 0.000831 0.000000
0.000453 0.000798 0.000000
0.000517 0.000823 0.000000
0.000536 0.000826 0.000000
0.000546 0.000833 0.000000
0.000562 0.000844 0.000000
0.000558 0.000831 0.000000
0.000569 0.000839 0.000000
0.000586 0.000843 0.000000
0.000597 0.000840 0.000000
0.000060 0.000300 0.000000
0.000060 0.000310 0.000000
0.000061 0.000321 0.000000
0.000059 0.000330 0.000000
0.000062 0.000339 0.000000
0.000059 0.000350 0.000000
0.000062 0.000360 0.000000
0.000060 0.000370 0.000000
0.000063 0.000381 0.000000
0.000059 0.000390 0.000000
0.000064 0.000400 0.000000
0.000060 0.000409 0.000000
0.000064 0.000419 0.000000
0.000058 0.000430 0.000000
0.000066 0.000440 0.000000
0.000060 0.000449 0.000000
0.000066 0.000460 0.000000
0.000055 0.000471 0.000000
0.000064 0.000475 0.000000
0.000068 0.000486 0.000000
0.000058 0.000496 0.000000
0.000477 0.000826 0.000000
0.000495 0.000820 0.000000
0.000518 0.000814 0.000000
0.000527 0.000821 0.000000
0.000542 0.000818 0.000000
0.000554 0.000820 0.000000
0.000580 0.000827 0.000000
0.000572 0.000831 0.000000
0.000588 0.000833 0.000000
0.000599 0.000831 0.000000
0.000070 0.000300 0.000000
0.000070 0.000310 0.000000
0.000070 0.000319 0.000000
0.000070 0.000330 0.000000
0.000071 0.000341 0.000000
0.000068 0.000351 0.000000
0.000077 0.000357 0.000000
0.000067 0.000371 0.000000
0.000075 0.000377 0.000000
0.000069 0.000390 0.000000
0.000074 0.000400 0.000000
0.000068 0.000411 0.000000
0.000075 0.000421 0.000000
0.000068 0.000429 0.000000
0.000075 0.000438 0.000000
0.000066 0.000452 0.000000
0.000077 0.000459 0.000000
0.000073 0.000470 0.000000
0.000076 0.000486 0.000000
0.000068 0.000496 0.000000
0.000076 0.000496 0.000000
0.000399 0.000575 0.000000
0.000485 0.000815 0.000000
0.000506 0.000815 0.000000
0.000536 0.000810 0.000000
0.000546 0.000826 0.000000
0.000563 0.000817 0.000000
0.000569 0.000825 0.000000
0.000574 0.000816 0.000000
0.000590 0.000823 0.000000
0.000601 0.000821 0.000000
0.000080 0.000300 0.000000
0.000080 0.000310 0.000000
0.000080 0.000321 0.000000
0.000081 0.000330 0.000000
0.000080 0.000340 0.000000
0.000080 0.000349 0.000000
0.000075 0.000365 0.000000
0.000083 0.000368 0.000000
0.000081 0.000384 0.000000
0.000078 0.000390 0.000000
0.000087 0.000396 0.000000
0.000079 0.000409 0.000000
0.000085 0.000417 0.000000
0.000079 0.000430 0.000000
0.000087 0.000445 0.000000
0.000077 0.000447 0.000000
0.000086 0.000463 0.000000
0.000074 0.000470 0.000000
0.000087 0.000473 0.000000
0.000085 0.000482 0.000000
0.000084 0.000495 0.000000
0.000469 0.000819 0.000000
0.000447 0.000799 0.000000
0.000521 0.000804 0.000000
0.000528 0.000811 0.000000
0.000546 0.000807 0.000000
0.000555 0.000809 0.000000
0.000564 0.000806 0.000000
0.000582 0.000814 0.000000
0.000592 0.000813 0.000000
0.000602 0.000811 0.000000
0.000090 0.000300 0.000000
0.000090 0.000310 0.000000
0.000090 0.000320 0.000000
0.000090 0.000329 0.000000
0.000090 0.000340 0.000000
0.000092 0.000352 0.000000
0.000089 0.000359 0.000000
0.000092 0.000370 0.000000
0.000088 0.000379 0.000000
0.000092 0.000388 0.000000
0.000086 0.000406 0.000000
0.000094 0.000408 0.000000
0.000088 0.000425 0.000000
0.000096 0.000426 0.000000
0.000089 0.000436 0.000000
0.000097 0.000455 0.000000
0.000087 0.000453 0.000000
0.000097 0.000471 0.000000
0.000106 0.000480 0.000000
0.000089 0.000495 0.000000
0.000095 0.000495 0.000000
0.000400 0.000600 0.000000
0.000482 0.000809 0.000000
0.000469 0.000807 0.000000
0.000499 0.000812 0.000000
0.000538 0.000800 0.000000
0.000558 0.000800 0.000000
0.000574 0.000806 0.000000
0.000582 0.000803 0.000000
0.000593 0.000804 0.000000
0.000603 0.000802 0.000000
0.000100 0.000300 0.000000
0.000100 0.000310 0.000000
0.000100 0.000320 0.000000
0.000101 0.000331 0.000000
0.000100 0.000339 0.000000
0.000099 0.000349 0.000000
0.000101 0.000360 0.000000
0.000100 0.000372 0.000000
0.000101 0.000380 0.000000
0.000101 0.000393 0.000000
0.000100 0.000398 0.000000
0.000103 0.000409 0.000000
0.000100 0.000418 0.000000
0.000100 0.000435 0.000000
0.000110 0.000443 0.000000
0.000097 0.000445 0.000000
0.000107 0.000460 0.000000
0.000098 0.000467 0.000000
0.000095 0.000481 0.000000
0.000106 0.000491 0.000000
0.000101 0.000494 0.000000
0.000424 0.000759 0.000000
0.000428 0.000767 0.000000
0.000444 0.000793 0.000000
0.000530 0.000798 0.000000
0.000547 0.000795 0.000000
0.000558 0.000792 0.000000
0.000575 0.000796 0.000000
0.000572 0.000789 0.000000
0.000592 0.000796 0.000000
0.000604 0.000792 0.000000
0.000110 0.000300 0.000000
0.000110 0.000310 0.000000
0.000110 0.000320 0.000000
0.000110 0.000329 0.000000
0.000111 0.000340 0.000000
0.000110 0.000351 0.000000
0.000112 0.000360 0.000000
0.000109 0.000369 0.000000
0.000112 0.000379 0.000000
0.000109 0.000389 0.000000
0.000112 0.000400 0.000000
0.000111 0.000412 0.000000
0.000116 0.000422 0.000000
0.000107 0.000427 0.000000
0.000112 0.000434 0.000000
0.000107 0.000449 0.000000
0.000115 0.000461 0.000000
0.000111 0.000471 0.000000
0.000116 0.000480 0.000000
0.000111 0.000493 0.000000
0.000119 0.000492 0.000000
0.000404 0.000690 0.000000
0.000399 0.000620 0.000000
0.000478 0.000801 0.000000
0.000505 0.000802 0.000000
0.000498 0.000795 0.000000
[...]
POINT_DATA 6231
SCALARS density float 1
LOOKUP_TABLE default
4403.510697
4424.287943
4421.563598
4422.069579
4425.136824
4425.946283
4425.676391
4426.898911
4430.310548
4429.404504
4426.563538
4431.781721
4429.250934
4429.965456
4430.871823
4440.237924
4423.349886
4432.210339
4412.557264
4423.713456
4411.182395
4428.976757
4425.464452
4433.131438
4441.123974
4421.070541
4403.096156
4437.258485
4439.893258
4450.836867
4422.351417
4409.798560
4426.273563
4424.046839
4422.143705
4424.960794
4427.634211
4425.246684
4421.318407
4425.895534
4428.187745
4423.811953
4430.746864
4424.746361
4437.744133
4416.323283
4427.976352
4410.215418
4443.745055
4461.178902
4460.530859
4416.128327
4399.435812
4387.802452
4424.786804
4492.755124
4396.308912
4407.349989
4419.558284
4417.448801
4449.894087
4461.845113
4417.708282
4426.881397
4418.100338
4432.315205
4425.522766
4417.807548
4430.528128
4439.207605
4422.115753
4432.122215
4429.316626
4435.572952
4417.279403
4439.753694
4415.821878
4475.671861
4399.767413
4454.076991
4351.953052
4449.508838
4420.607552
4415.165273
4426.552625
4406.031304
4544.558036
4347.800682
4377.378527
4441.493319
4409.326934
4412.338740
4403.962073
4419.374992
4424.349180
4428.669123
4424.012192
4428.330930
4439.829167
4423.996564
4422.485657
4419.068344
4438.292204
4408.627112
4436.976834
4419.630887
4445.701658
4403.315036
4430.874856
4391.064628
4459.080865
4368.505796
4557.102141
4370.580632
4431.843234
4453.267729
4449.801744
4471.393037
4364.470576
4486.372846
4439.061665
4401.130397
4510.736403
4452.493455
4427.355669
4433.747309
4433.024698
4432.943320
4427.679237
4427.684315
4420.810135
4443.403851
4424.811476
4435.435306
4414.323909
4449.673544
4402.339889
4444.028899
4414.149063
4450.684294
4386.074761
4508.438123
4307.879129
4419.831041
4383.895839
4499.568886
4419.500820
4366.306865
4472.110255
4476.897488
4450.771612
4388.286383
4441.124641
4395.912556
4418.003970
4437.683455
4428.585554
4413.631659
4441.690966
4422.092143
4436.470347
4414.403131
4436.981610
4406.386644
4440.142379
4415.778425
4440.102394
4401.849145
4459.674272
4360.927188
4480.912681
4356.902526
4478.378164
4361.408667
4536.764553
4383.039610
4442.977850
4424.211793
4454.953926
4366.021306
4423.271184
4431.964391
4389.945607
4428.692326
4440.525365
4409.709475
4424.583497
4433.727035
4438.121551
4445.474897
4410.339392
4458.391397
4397.540538
4445.569686
4415.269656
4451.977586
4411.621592
4442.576754
4422.274833
4438.899571
4419.752055
4473.118927
4400.168940
4518.693062
4372.530627
4480.982828
4432.014596
4418.621376
4397.449104
4431.203421
4454.913455
4451.608277
4409.004473
4392.394065
4432.094683
4445.315028
4431.256444
4422.870579
4432.251109
4421.486005
4416.066583
4443.925634
4422.110361
4431.565029
4456.145496
4397.317761
4439.556615
4394.011127
4431.959302
4411.016423
4436.803117
4439.956814
4458.712865
4438.325287
4460.798029
4447.804182
4412.649245
4388.049161
4553.353481
4451.889640
4430.200718
4461.343356
4477.217462
4413.735899
4470.568805
4430.977738
4437.363475
4410.384174
4427.353048
4428.968419
4417.971522
4439.811214
4425.110806
4423.149138
4434.589396
4424.739338
4461.328909
4437.945803
4404.673623
4435.201397
4410.609786
4441.650018
4465.251230
4391.151970
4453.627335
4453.145645
4357.109967
4466.739836
4411.634295
4431.677527
4412.566376
4421.576290
4433.082109
4402.190586
4448.879605
4410.199166
4430.729459
4432.984873
4435.614748
4423.198534
4432.077060
4431.570143
4426.882641
4406.320573
4436.731512
4420.105031
4433.661956
4421.124232
4411.022319
4457.409328
4402.729857
4426.791998
4464.139802
4416.597221
4377.097627
4441.903058
4435.878494
4425.000693
4426.045670
4416.358301
4468.071796
4440.404900
4425.382278
4478.679479
4422.585932
4429.687381
4458.359771
4422.584677
4423.103507
4423.108430
4432.822503
4433.356184
4418.413495
4430.028330
4434.493408
4446.133896
4406.187489
4438.390750
4419.241986
4441.512141
4450.525874
4428.402909
4428.455697
4390.384809
4445.706260
4449.788997
4416.230139
4471.750718
4414.059955
4437.759044
4420.529172
4429.701822
4434.479967
4420.640489
4419.180501
4442.511933
4423.103479
4409.703230
4484.703292
4438.545218
4414.814239
4431.418150
4422.330940
4429.449134
4443.622909
4406.587552
4416.427061
4446.686850
4431.172443
4422.030854
4434.610844
4398.103577
4451.905880
4399.097399
4433.806240
4431.353318
4443.840543
4464.678930
4387.771601
4467.574968
4397.983677
4410.562465
4412.867841
4584.076365
4439.022957
4406.280657
4434.894240
4465.379128
4429.174586
4431.017727
4424.883945
4444.353149
4424.994895
4427.920706
4435.641214
4408.602259
4443.414514
4439.711604
4413.447391
4421.044847
4432.736294
4438.294503
4432.233457
4432.942187
4427.928210
4435.824890
4414.773183
4374.188593
4434.848826
4394.494787
4418.639906
4438.860891
4392.807110
4436.475677
4412.106863
4424.113390
4455.310556
4448.132284
4381.137814
4356.296839
4437.036410
4407.470252
4408.943700
4431.437051
4436.323035
4424.107866
4422.212032
4438.853168
4411.036923
4424.637816
4438.250935
4428.768786
4402.204827
4422.003591
4422.131766
4440.306934
4427.158187
4413.588465
4448.819694
4422.253940
4442.597703
4494.658808
4420.346113
4422.472961
4427.336057
4405.600026
4418.816104
4436.440923
4419.022708
4434.098964
4504.183344
4474.859375
4467.103417
4438.704060
4432.505027
4433.435268
4427.246456
4437.826506
4406.572098
4435.278130
4448.430997
4405.464257
4438.722045
4428.013061
4442.051288
4410.278297
4431.280119
4407.937279
4439.887690
4379.897965
4410.143518
4502.125740
4570.382788
4387.401047
4372.521124
4408.276340
4419.608518
4453.625527
4454.425791
4384.742795
4442.310008
4407.402372
4408.227171
4407.337783
4449.259554
4430.968330
4438.052128
4430.272235
4426.891606
4429.638198
4416.047164
4412.454650
4440.791245
4430.008433
4396.938034
4443.774084
4411.420119
4444.136566
4392.928594
4462.128617
4418.004114
4484.424354
4350.801698
4328.435578
4508.646908
4393.937005
4414.525410
4426.698447
4435.666337
4480.619328
4476.660696
4418.711276
4416.465349
4412.165271
4415.480892
4409.690358
4429.397777
4433.163379
4421.282180
4425.129223
4442.569741
4423.888647
4431.610562
4419.193948
4426.160863
4446.000125
4426.944232
4401.094513
4447.403737
4418.338551
4432.787161
4413.670027
4414.676094
4500.993247
4488.285016
4422.502765
4403.753797
4427.082758
4441.554317
4424.427755
4393.447966
4433.562829
4442.252538
4407.268308
4405.216210
4448.209025
4423.054314
4433.338369
4427.313463
4439.453970
4436.927150
4410.715931
4438.206819
4429.604668
4423.209834
4427.334263
4409.700156
4427.399406
4451.317934
4419.098102
4441.334166
4395.945910
4451.248971
4402.905667
4467.041594
4332.090462
4358.995368
4431.839691
4421.539109
4426.646778
4384.921029
4394.124555
4451.712636
4421.983533
4442.506372
4456.116738
4425.062781
4430.019741
4437.750138
4427.481969
4421.522575
4434.562196
4436.708619
4436.653262
4409.718284
4442.750513
4422.848732
4448.871179
4415.499571
4417.469900
4410.768781
4445.774960
4405.490106
4455.974935
4331.747658
4473.795016
4393.038951
4449.419456
4403.202205
4420.971608
4414.476356
4430.797455
4460.710710
4389.027836
4461.487333
4452.775898
4392.977808
4445.064667
4429.841223
4429.716504
4423.376256
4438.800760
4433.487238
4415.010888
4427.399341
4431.949094
4437.884110
4394.570492
4439.169489
4403.034719
4451.269839
4404.440964
4444.605517
4389.720855
4449.088892
4453.962526
4491.117564
4426.808215
4542.832625
4393.341066
4492.823009
4457.320237
4430.869781
4452.575913
4433.552663
4405.028206
4413.054042
4414.160904
4460.460022
4389.373978
4428.315195
4427.805724
4425.922333
4414.769718
4439.819742
4443.491243
4415.782057
4418.723378
4438.385865
4438.851876
4402.772113
4455.456457
4384.516907
4446.881683
4427.746983
4417.132417
4401.515144
4471.599230
4362.905115
4398.376459
4551.860945
4416.602738
4436.215673
4453.820175
4416.621055
4386.730281
4416.454398
4428.307255
4449.919660
4408.426797
4362.546318
4424.736800
4434.230787
4434.711101
4423.015553
4428.657427
4402.942241
4438.571629
4431.777062
4404.809986
4432.884685
4433.818015
4404.421992
4453.533016
4422.445866
4420.198937
4467.986622
4386.003973
4472.620005
4402.352962
4474.600415
4410.163464
4441.941863
4413.459301
4410.849097
4413.695712
4435.510569
4422.213344
4433.139012
4344.994772
4376.124323
4451.320721
4427.616575
4425.288587
4418.743462
4437.399529
4415.754067
4434.454819
4428.916439
4422.871139
4447.586292
4409.708153
4442.816852
4402.761450
4447.737318
4418.435424
4402.260312
4420.487088
4397.424264
4440.599343
4387.425467
4445.360559
4413.947485
4429.524887
4420.746428
4461.766344
4441.091347
4448.672053
4500.151921
4380.545242
4508.078414
4377.963583
4434.868489
4429.670114
4431.190941
4435.277228
4428.021129
4421.906578
4436.523103
4405.700582
4407.461194
4445.646323
4409.589991
4419.537483
4461.804584
4405.587145
4459.248987
4437.394792
4402.136828
4450.884760
4428.113014
4425.770070
4418.114003
4416.305397
4398.021996
4432.357120
4386.865035
4444.679888
4438.852883
4390.693708
4357.739497
4489.299841
4435.482551
4437.827651
4425.977375
4423.103793
4421.926233
4417.683959
4437.024993
4402.031873
4445.715794
4458.901138
4394.666930
4448.903145
4411.077036
4437.959774
4384.187662
4404.877090
4373.851918
4451.046320
4388.749830
4420.018865
4427.483059
4507.533787
4418.042533
4417.089081
4468.957772
4419.504205
4460.995169
4461.041959
4479.501079
4400.979705
4459.481809
4432.333918
4466.800425
4432.700899
4424.356965
4439.565749
4429.974786
4428.193086
4429.644172
4398.615463
4408.694337
4416.498824
4442.663795
4406.104394
4437.462727
4442.727091
4412.057802
4460.884518
4458.889098
4404.388900
4498.260926
4378.857695
4413.448069
4430.148044
4405.599098
4460.802442
4417.182193
4418.174313
4414.525626
4438.388609
4430.801140
4429.554517
4416.150935
4414.532218
4424.094356
4429.681368
4425.159682
4419.054436
4412.447398
4440.237804
4433.385866
4429.925475
4446.644099
4385.832074
4417.840679
4415.162550
4433.554990
4402.979322
4412.496625
4433.291642
4392.684920
4405.881175
4388.615033
4470.011905
4450.975633
4655.420149
4494.746383
4434.482184
4448.461656
4428.349824
4456.305053
4431.508960
4473.213195
4396.654843
4436.980871
4429.120256
4438.909606
4421.439778
4435.893209
4452.056044
4407.001720
4425.620891
4393.836058
4415.360589
4437.143002
4433.826885
4424.683999
4416.409177
4446.987918
4430.170824
4432.511605
4448.628746
4403.797566
4425.028799
4427.952720
4423.455262
4414.682027
4397.697062
4451.572521
4464.856751
4437.856903
4436.798120
4424.729684
4456.045427
4381.754542
4432.626129
4433.711132
4424.476768
4429.453483
4418.081901
4421.637469
4433.950856
4428.139338
4441.201323
4428.024202
4420.884358
4398.567117
4429.519110
4442.999915
4419.147984
4391.805040
4413.473694
4447.036053
4421.470458
4429.760413
4424.427326
4408.958997
4389.543433
4392.220891
4382.191483
4381.036378
4445.335803
4419.407797
4458.848127
4413.392385
4452.346883
4414.838890
4428.214468
4417.293467
4438.062276
4438.194148
4429.091825
4442.844958
4401.197578
4427.320080
4409.093078
4416.551485
4451.386435
4411.149716
4423.550270
4380.706038
4494.451057
4434.386057
4475.038098
4385.321485
4375.062009
4474.556330
4454.054975
4409.237142
4422.958186
4403.152041
4448.020385
4420.977555
4415.519361
4436.452319
4403.042921
4438.355235
4461.297630
4428.170229
4435.750531
4425.846000
4412.168459
4433.180566
4405.501518
4457.437563
4403.781361
4436.719512
4402.510335
4433.845252
4392.743991
4464.248699
4432.531786
4400.924510
4373.422610
4405.717236
4461.455077
4455.332558
4440.420132
4447.587524
4491.280438
4443.983877
4430.452447
4488.227539
4454.969825
4417.150576
4432.624309
4401.951374
4427.139283
4394.620186
4430.902236
4426.237440
4433.618369
4433.889802
4447.197255
4411.804227
4447.415096
4389.258237
4457.666490
4410.914298
4428.242647
4439.864304
4408.134803
4407.848517
4438.496828
4460.821649
4411.047181
4449.386197
4375.141798
4373.570116
4430.956712
4448.372687
4479.360783
4449.533798
4484.755116
4390.433593
4437.470337
4414.510029
4461.810759
4323.621470
4439.629817
4435.490892
4424.917558
4436.634692
4418.193456
4414.816651
4439.368068
4396.466907
4454.279276
4395.627712
4432.457948
4427.796301
4415.769895
4416.693052
4441.645358
4389.500515
4451.781166
4394.943530
4383.877884
4450.208990
4467.746149
4451.994110
4401.590594
4447.659072
4468.158340
4402.320577
4430.722339
4390.630611
4439.698634
4458.216370
4457.099056
4411.584134
4439.676838
4429.515604
4435.505769
4435.194941
4427.509334
4448.937119
4383.178401
4469.405743
4389.445717
4440.524302
4398.871280
4445.151027
4415.906596
4435.393095
4400.681400
4428.277095
4445.413176
4493.291256
4342.182834
4464.211409
4461.870058
4491.484480
4435.170065
4466.888109
4435.764234
4442.293126
4441.073070
4399.597329
4353.828512
4400.579151
4435.752572
4429.335335
4426.805473
4419.647070
4425.841809
4418.540367
4416.555008
4449.121805
4392.006517
4428.359352
4440.266247
4382.942416
4449.662810
4383.364583
4440.749750
4402.297379
4443.703010
4352.016557
4437.851987
4278.397052
4451.082804
4619.370018
4405.390026
4430.372092
4485.817592
4431.458317
4453.923580
4409.110266
4465.786801
4409.371693
4484.096273
4447.192648
4421.742497
4433.854245
4438.921325
4430.440850
4430.821501
4419.385346
4442.107008
4414.883416
4440.423430
4408.085275
4413.308253
4424.271288
4415.198005
4440.145614
4390.975808
4455.432305
4374.613749
4520.740309
4493.212665
4512.074957
4412.879520
4381.574075
4446.269957
4468.324346
4444.502177
4463.028572
4448.299909
4420.332874
4409.584967
4387.510735
4452.559262
4422.299697
4433.674433
4409.088691
4430.498916
4421.883351
4459.093419
4387.105703
4412.484135
4379.588133
4441.533094
4444.286523
4409.465221
4412.591745
4435.978116
4419.947064
4440.708455
4434.464715
4378.130245
4440.929047
4469.736162
4451.175864
4458.529081
4404.989224
4531.340858
4455.285340
4434.047095
4435.772893
4442.553881
4441.713371
4438.671606
4417.262991
4426.445272
4434.251371
4430.273007
4436.337922
4409.982960
4395.084600
4441.175225
4443.051705
4450.947707
4408.248309
4391.873275
4446.189577
4431.164562
4429.615568
4409.437575
4410.734705
4454.620591
4443.881850
4445.481130
4410.729470
4384.749463
4476.480147
4487.107297
4429.289284
4506.167062
4436.512991
4475.274370
4424.438906
4465.842408
4445.228761
4406.325202
4425.890866
4426.630526
4402.081312
4422.790029
4447.807581
4416.792165
4393.567916
4446.723906
4391.933931
4448.773620
4424.384152
4407.468471
4391.495788
4448.433261
4437.470578
4453.075885
4382.149527
4476.455975
4352.773791
4556.302180
4295.559918
4472.847897
4475.054818
4462.583132
4431.053755
4436.039087
4447.471087
4424.783121
4389.479086
4418.918046
4395.059689
4418.860841
4419.368683
4450.595200
4427.478887
4427.327085
4431.532412
4424.126864
4439.793647
4420.183886
4437.974201
4406.498063
4425.611616
4421.392648
4395.565578
4431.296452
4415.131434
4414.186046
4422.043891
4441.088262
4425.954960
4549.175598
4489.383428
4477.853088
4446.392747
4451.001845
4470.573529
4454.062595
4472.157146
4426.452294
4477.696560
4397.942660
4418.121725
4430.065067
4403.847526
4406.524276
4431.681283
4393.531262
4419.144915
4410.979391
4432.271469
4409.804599
4425.945116
4419.904317
4391.860478
4431.150946
4440.770648
4440.668027
4428.176829
4397.511722
4411.398393
4400.995780
4445.189559
4476.641627
4452.359504
4470.615718
4465.332471
4434.400592
4460.140649
4451.139485
4372.100370
4413.282730
4412.696196
4423.187302
4434.716058
4426.830327
4431.021773
4454.586968
4439.112000
4449.480531
4426.191211
4412.983227
4424.433772
4429.678607
4412.453417
4428.726383
4421.295735
4402.099470
4437.356006
4433.946786
4463.534343
4433.491084
4448.589441
4439.622380
4462.857607
4437.503430
4450.062689
4437.905655
4443.147765
4453.813685
4424.826949
4480.580357
4440.674407
4418.630609
4424.844273
4424.182422
4414.984330
4417.488800
4386.242335
4448.661131
4401.363057
4435.795879
4421.205967
4410.197279
4402.548867
4416.587636
4438.542757
4422.255948
4414.374284
4426.919151
4429.904436
4433.415729
4429.536611
4421.868402
4478.961129
4481.229598
4464.341315
4455.159024
4459.979516
4442.005814
4448.817987
4433.763645
4449.339972
4378.303648
4412.225011
4423.103903
4418.155701
4434.937458
4437.402837
4424.107837
4446.238913
4419.249911
4442.459378
4419.778662
4428.446756
4417.926268
4409.383843
4420.425275
4430.999935
4424.329427
4409.400342
4428.237993
4418.902364
4447.572111
4435.793835
4422.477857
4460.147865
4447.084889
4431.417956
4458.934649
4454.138205
4458.901733
4420.981370
4478.460372
4425.681157
4398.711787
4422.116857
4423.935883
4425.720178
4397.358055
4426.777849
4393.265415
4441.999646
4414.227957
4451.300663
4432.744740
4431.364850
4429.301471
4422.941380
4430.915321
4421.825735
4427.974877
4441.413355
4433.416735
4435.684941
4445.073994
4469.746702
4449.472902
4450.836764
4452.534611
4461.036863
4464.693504
4458.984248
4448.111641
4428.504230
4412.275169
4416.941731
4421.570150
4425.129882
4427.956209
4419.791997
4450.392296
4433.108539
4442.594004
4413.641533
4412.055367
4423.076818
4434.092422
4439.535787
4429.789937
4413.034021
4404.898736
4436.696175
4437.636768
4411.736325
4422.990886
4417.379902
4430.858424
4422.822115
4456.878821
4431.351688
4467.613656
4417.952063
4447.935921
4433.763267
4407.528990
4468.982240
4506.186737
4423.852765
4429.047671
4423.501332
4416.797394
4394.300773
4444.426365
4420.018617
4417.449908
4387.920616
4436.333511
4429.437115
4385.696704
4442.213057
4452.150108
4414.265770
4433.523437
4447.049922
4426.548168
4451.736077
4430.752587
4443.297620
4460.430577
4428.509922
4435.329919
4430.574465
4452.511758
4443.347944
4459.453373
4472.302671
4402.502900
4386.863869
4429.299130
4427.949308
4427.465255
4432.773444
4432.855364
4410.987737
4437.552403
4430.602538
4439.962166
4410.678106
4414.705078
4436.635131
4422.550522
4396.898506
4437.308056
4395.839260
4413.233094
4435.524452
4436.121641
4413.727305
4445.508842
4446.935546
4460.917637
4417.974180
4432.501926
4459.694426
4408.014175
4473.956899
4451.272868
4442.126287
4460.870236
4432.457873
4425.243217
4439.371816
4413.821122
4415.810325
4409.526051
4411.467642
4416.709679
4414.254493
4420.261385
4415.209635
4414.727613
4428.600354
4431.876918
4428.994306
4441.484639
4429.147030
4424.003241
4428.462647
4431.052620
4425.147376
4397.181403
4427.004905
4463.995112
4445.673673
4422.685545
4437.739166
4467.387974
4483.975391
4452.910636
4434.790735
4438.778749
4420.094996
4441.337411
4425.679030
4440.075857
4445.522887
4428.487904
4443.299569
4421.054546
4434.350893
4440.623129
4420.526628
4407.377686
4424.080429
4397.556580
4442.610966
4439.628719
4425.378741
4424.203073
4404.704906
4441.318245
4446.638577
4417.249618
4441.442403
4447.435739
4433.435444
4433.062164
4416.672180
4475.081036
4460.477478
4461.108263
4429.834995
4426.825199
4431.855231
4415.531795
4430.558633
4392.380137
4461.949951
4404.595354
4422.346856
4432.792099
4402.996042
4434.661198
4442.511807
4424.596028
4439.077507
4435.087580
4417.159025
4424.759041
4426.634326
4414.595033
4440.932824
4432.394355
4448.654314
4439.677049
4446.005790
4440.488587
4441.209529
4447.827813
4468.515079
4458.529239
4459.560120
4427.590183
4431.263098
4439.256804
4417.260248
4436.011283
4417.195027
4422.895264
4396.263840
4430.970016
4436.934082
4403.391502
4439.782621
4420.494004
4425.046920
4414.111308
4419.000076
4411.680498
4446.930549
4401.999692
4429.403967
4401.052897
4447.378245
4433.009521
4430.156039
4443.058797
4454.356824
4432.564376
4451.535723
4452.828188
4449.296208
4458.871382
4433.858607
4435.548211
4401.982121
4456.829259
4410.910315
4440.664866
4416.239912
4455.668353
4424.186726
4392.128080
4444.694526
4406.739894
4426.327156
4406.098955
4422.763200
4422.164233
4456.924640
4417.133363
4439.920681
4425.528562
4448.334462
4439.459212
4432.194747
4435.827957
4437.620630
4443.398269
4460.743326
4446.311322
4465.947840
4461.678469
4458.431607
4434.024194
4429.466258
4420.473981
4426.834792
4434.217992
4420.116202
4454.248647
4412.764395
4436.627368
4451.943008
4445.591996
4412.484493
4435.977546
4437.604676
4441.374068
4435.817329
4441.600630
4446.249626