# vtk DataFile Version 2.0
mfree iwf
ASCII

DATASET UNSTRUCTURED_GRID
POINTS 6231 float
0.000000 0.000300 0.000000
0.000000 0.000310 0.000000
0.000000 0.000320 0.000000
0.000000 0.000330 0.000000
0.000000 0.000340 0.000000
0.000000 0.000350 0.000000
0.000000 0.000360 0.000000
0.000001 0.000370 0.000000
0.000001 0.000380 0.000000
0.000001 0.000390 0.000000
0.000001 0.000400 0.000000
0.000001 0.000410 0.000000
0.000001 0.000420 0.000000
0.000001 0.000430 0.000000
0.000001 0.000440 0.000000
0.000001 0.000450 0.000000
0.000002 0.000460 0.000000
0.000002 0.000470 0.000000
0.000002 0.000480 0.000000
0.000001 0.000492 0.000000
0.000006 0.000501 0.000000
0.001132 0.001160 0.000000
0.001206 0.001192 0.000000
0.001149 0.001166 0.000000
0.001219 0.001197 0.000000
0.001241 0.001201 0.000000
0.001291 0.001203 0.000000
0.001299 0.001201 0.000000
0.001310 0.001195 0.000000
0.001323 0.001192 0.000000
0.001353 0.001192 0.000000
0.000010 0.000300 0.000000
0.000010 0.000310 0.000000
0.000010 0.000320 0.000000
0.000010 0.000330 0.000000
0.000010 0.000340 0.000000
0.000010 0.000350 0.000000
0.000010 0.000360 0.000000
0.000010 0.000370 0.000000
0.000011 0.000380 0.000000
0.000011 0.000390 0.000000
0.000011 0.000400 0.000000
0.000011 0.000410 0.000000
0.000011 0.000420 0.000000
0.000011 0.000430 0.000000
0.000011 0.000440 0.000000
0.000011 0.000450 0.000000
0.000012 0.000460 0.000000
0.000011 0.000472 0.000000
0.000013 0.000478 0.000000
0.000009 0.000492 0.000000
0.000013 0.000498 0.000000
0.001260 0.001197 0.000000
0.001276 0.001197 0.000000
0.001284 0.001198 0.000000
0.001289 0.001195 0.000000
0.001305 0.001188 0.000000
0.001316 0.001186 0.000000
0.001330 0.001182 0.000000
0.001341 0.001183 0.000000
0.001347 0.001180 0.000000
0.001349 0.001188 0.000000
0.000020 0.000300 0.000000
0.000020 0.000310 0.000000
0.000020 0.000320 0.000000
0.000020 0.000330 0.000000
0.000021 0.000340 0.000000
0.000020 0.000350 0.000000
0.000021 0.000360 0.000000
0.000020 0.000370 0.000000
0.000021 0.000380 0.000000
0.000021 0.000390 0.000000
0.000020 0.000400 0.000000
0.000022 0.000410 0.000000
0.000020 0.000420 0.000000
0.000022 0.000430 0.000000
0.000020 0.000439 0.000000
0.000023 0.000451 0.000000
0.000021 0.000460 0.000000
0.000022 0.000470 0.000000
0.000021 0.000482 0.000000
0.000024 0.000494 0.000000
0.000020 0.000497 0.000000
0.001226 0.001187 0.000000
0.001256 0.001192 0.000000
0.001266 0.001193 0.000000
0.001271 0.001191 0.000000
0.001280 0.001184 0.000000
0.001295 0.001187 0.000000
0.001322 0.001179 0.000000
0.001337 0.001178 0.000000
0.001343 0.001169 0.000000
0.001350 0.001166 0.000000
0.000030 0.000300 0.000000
0.000030 0.000310 0.000000
0.000030 0.000320 0.000000
0.000031 0.000330 0.000000
0.000030 0.000339 0.000000
0.000031 0.000350 0.000000
0.000030 0.000360 0.000000
0.000030 0.000370 0.000000
0.000031 0.000380 0.000000
0.000031 0.000390 0.000000
0.000031 0.000400 0.000000
0.000031 0.000410 0.000000
0.000031 0.000419 0.000000
0.000032 0.000430 0.000000
0.000031 0.000440 0.000000
0.000031 0.000450 0.000000
0.000031 0.000459 0.000000
0.000036 0.000473 0.000000
0.000029 0.000478 0.000000
0.000032 0.000488 0.000000
0.000032 0.000497 0.000000
0.000063 0.000500 0.000000
0.001248 0.001188 0.000000
0.001264 0.001180 0.000000
0.001290 0.001177 0.000000
0.001299 0.001169 0.000000
0.001305 0.001181 0.000000
0.001309 0.001174 0.000000
0.001320 0.001170 0.000000
0.001326 0.001168 0.000000
0.001349 0.001158 0.000000
0.000040 0.000300 0.000000
0.000040 0.000310 0.000000
0.000040 0.000320 0.000000
0.000040 0.000331 0.000000
0.000040 0.000341 0.000000
0.000041 0.000349 0.000000
0.000040 0.000360 0.000000
0.000041 0.000369 0.000000
0.000040 0.000380 0.000000
0.000041 0.000390 0.000000
0.000041 0.000399 0.000000
0.000041 0.000410 0.000000
0.000042 0.000420 0.000000
0.000040 0.000430 0.000000
0.000042 0.000439 0.000000
0.000043 0.000450 0.000000
0.000042 0.000460 0.000000
0.000037 0.000469 0.000000
0.000045 0.000477 0.000000
0.000043 0.000496 0.000000
0.000040 0.000498 0.000000
0.001026 0.001022 0.000000
0.001254 0.001177 0.000000
0.001274 0.001175 0.000000
0.001277 0.001172 0.000000
0.001290 0.001178 0.000000
0.001310 0.001164 0.000000
0.001331 0.001158 0.000000
0.001328 0.001149 0.000000
0.001339 0.001161 0.000000
0.001346 0.001149 0.000000
0.000050 0.000300 0.000000
0.000050 0.000310 0.000000
0.000050 0.000320 0.000000
0.000050 0.000329 0.000000
0.000051 0.000339 0.000000
0.000050 0.000350 0.000000
0.000050 0.000360 0.000000
0.000050 0.000371 0.000000
0.000052 0.000379 0.000000
0.000050 0.000390 0.000000
0.000052 0.000400 0.000000
0.000049 0.000410 0.000000
0.000053 0.000419 0.000000
0.000051 0.000430 0.000000
0.000053 0.000440 0.000000
0.000047 0.000451 0.000000
0.000054 0.000458 0.000000
0.000052 0.000470 0.000000
0.000055 0.000483 0.000000
0.000048 0.000488 0.000000
0.000050 0.000498 0.000000
0.001246 0.001194 0.000000
0.001201 0.001183 0.000000
0.001266 0.001169 0.000000
0.001275 0.001155 0.000000
0.001294 0.001161 0.000000
0.001312 0.001157 0.000000
0.001303 0.001154 0.000000
0.001321 0.001157 0.000000
0.001336 0.001149 0.000000
0.001342 0.001138 0.000000
0.000060 0.000300 0.000000
0.000060 0.000310 0.000000
0.000060 0.000321 0.000000
0.000060 0.000332 0.000000
0.000061 0.000340 0.000000
0.000059 0.000350 0.000000
0.000062 0.000359 0.000000
0.000060 0.000368 0.000000
0.000062 0.000381 0.000000
0.000059 0.000390 0.000000
0.000063 0.000399 0.000000
0.000060 0.000410 0.000000
0.000063 0.000419 0.000000
0.000058 0.000430 0.000000
0.000065 0.000439 0.000000
0.000061 0.000449 0.000000
0.000065 0.000460 0.000000
0.000055 0.000471 0.000000
0.000064 0.000475 0.000000
0.000068 0.000485 0.000000
0.000058 0.000496 0.000000
0.001235 0.001194 0.000000
0.001245 0.001179 0.000000
0.001260 0.001160 0.000000
0.001281 0.001163 0.000000
0.001292 0.001149 0.000000
0.001291 0.001141 0.000000
0.001322 0.001139 0.000000
0.001313 0.001147 0.000000
0.001331 0.001138 0.000000
0.001338 0.001130 0.000000
0.000070 0.000300 0.000000
0.000070 0.000310 0.000000
0.000070 0.000319 0.000000
0.000070 0.000328 0.000000
0.000071 0.000340 0.000000
0.000070 0.000351 0.000000
0.000072 0.000359 0.000000
0.000067 0.000372 0.000000
0.000082 0.000376 0.000000
0.000069 0.000390 0.000000
0.000073 0.000400 0.000000
0.000068 0.000411 0.000000
0.000074 0.000421 0.000000
0.000068 0.000429 0.000000
0.000076 0.000439 0.000000
0.000066 0.000452 0.000000
0.000078 0.000458 0.000000
0.000072 0.000470 0.000000
0.000076 0.000486 0.000000
0.000068 0.000495 0.000000
0.000076 0.000496 0.000000
0.001016 0.001002 0.000000
0.001235 0.001182 0.000000
0.001256 0.001171 0.000000
0.001273 0.001140 0.000000
0.001291 0.001160 0.000000
0.001303 0.001142 0.000000
0.001313 0.001139 0.000000
0.001307 0.001130 0.000000
0.001327 0.001129 0.000000
0.001334 0.001120 0.000000
0.000080 0.000300 0.000000
0.000080 0.000310 0.000000
0.000081 0.000321 0.000000
0.000079 0.000332 0.000000
0.000081 0.000341 0.000000
0.000080 0.000351 0.000000
0.000082 0.000361 0.000000
0.000074 0.000371 0.000000
0.000075 0.000383 0.000000
0.000080 0.000391 0.000000
0.000090 0.000397 0.000000
0.000079 0.000410 0.000000
0.000086 0.000417 0.000000
0.000078 0.000431 0.000000
0.000086 0.000445 0.000000
0.000076 0.000448 0.000000
0.000084 0.000464 0.000000
0.000074 0.000470 0.000000
0.000088 0.000472 0.000000
0.000085 0.000482 0.000000
0.000084 0.000495 0.000000
0.001225 0.001193 0.000000
0.001196 0.001189 0.000000
0.001258 0.001150 0.000000
0.001269 0.001157 0.000000
0.001282 0.001148 0.000000
0.001287 0.001133 0.000000
0.001297 0.001133 0.000000
0.001316 0.001127 0.000000
0.001323 0.001120 0.000000
0.001330 0.001111 0.000000
0.000090 0.000300 0.000000
0.000090 0.000310 0.000000
0.000090 0.000319 0.000000
0.000090 0.000329 0.000000
0.000091 0.000339 0.000000
0.000089 0.000350 0.000000
0.000092 0.000362 0.000000
0.000088 0.000369 0.000000
0.000093 0.000379 0.000000
0.000088 0.000387 0.000000
0.000084 0.000404 0.000000
0.000093 0.000409 0.000000
0.000086 0.000425 0.000000
0.000097 0.000426 0.000000
0.000090 0.000435 0.000000
0.000097 0.000455 0.000000
0.000087 0.000453 0.000000
0.000098 0.000472 0.000000
0.000106 0.000480 0.000000
0.000089 0.000494 0.000000
0.000094 0.000495 0.000000
0.001035 0.001038 0.000000
0.001229 0.001175 0.000000
0.001217 0.001183 0.000000
0.001247 0.001168 0.000000
0.001263 0.001138 0.000000
0.001291 0.001124 0.000000
0.001303 0.001123 0.000000
0.001310 0.001117 0.000000
0.001319 0.001111 0.000000
0.001326 0.001102 0.000000
0.000100 0.000300 0.000000
0.000100 0.000310 0.000000
0.000100 0.000321 0.000000
0.000099 0.000331 0.000000
0.000102 0.000341 0.000000
0.000099 0.000350 0.000000
0.000102 0.000358 0.000000
0.000100 0.000370 0.000000
0.000102 0.000380 0.000000
0.000100 0.000391 0.000000
0.000101 0.000400 0.000000
0.000103 0.000407 0.000000
0.000100 0.000417 0.000000
0.000100 0.000437 0.000000
0.000108 0.000442 0.000000
0.000096 0.000445 0.000000
0.000107 0.000460 0.000000
0.000096 0.000465 0.000000
0.000094 0.000481 0.000000
0.000106 0.000491 0.000000
0.000101 0.000494 0.000000
0.001155 0.001170 0.000000
0.001165 0.001174 0.000000
0.001190 0.001186 0.000000
0.001270 0.001144 0.000000
0.001278 0.001132 0.000000
0.001280 0.001122 0.000000
0.001300 0.001114 0.000000
0.001291 0.001111 0.000000
0.001313 0.001105 0.000000
0.001320 0.001094 0.000000
0.000110 0.000300 0.000000
0.000110 0.000310 0.000000
0.000110 0.000319 0.000000
0.000110 0.000329 0.000000
0.000110 0.000338 0.000000
0.000111 0.000351 0.000000
0.000109 0.000361 0.000000
0.000112 0.000370 0.000000
0.000110 0.000379 0.000000
0.000110 0.000389 0.000000
0.000112 0.000399 0.000000
0.000111 0.000415 0.000000
0.000116 0.000423 0.000000
0.000105 0.000427 0.000000
0.000114 0.000432 0.000000
0.000107 0.000450 0.000000
0.000116 0.000462 0.000000
0.000110 0.000470 0.000000
0.000116 0.000480 0.000000
0.000111 0.000493 0.000000
0.000119 0.000492 0.000000
0.001100 0.001128 0.000000
0.001045 0.001058 0.000000
0.001222 0.001171 0.000000
0.001242 0.001158 0.000000
0.001231 0.001155 0.000000
[...]
POINT_DATA 6231
SCALARS density float 1
LOOKUP_TABLE default
4416.086490
4427.713425
4423.982905
4423.493206
4422.103907
4421.391381
4426.709326
4428.099725
4429.123578
4430.672914
4428.947770
4433.726443
4429.074979
4428.656039
4430.979760
4440.220448
4423.646426
4432.179234
4413.372479
4424.441993
4411.269967
4430.003020
4422.402940
4443.619614
4436.383300
4419.230488
4401.548446
4425.558067
4448.726399
4450.050113
4415.397928
4419.248917
4425.647827
4425.797123
4427.551760
4432.613196
4431.407419
4423.946538
4425.802777
4425.426870
4428.712124
4423.751061
4424.477472
4424.672065
4439.948517
4416.230783
4427.491300
4410.716769
4440.883406
4463.138782
4459.489778
4416.295142
4411.520816
4415.866381
4438.837154
4500.889523
4401.759292
4402.792317
4427.158342
4400.488252
4450.767140
4437.388379
4420.645780
4430.638237
4426.554875
4426.266764
4420.220923
4426.868150
4427.488876
4436.744788
4424.243078
4431.128454
4429.960028
4442.006071
4420.226747
4436.299358
4417.191388
4473.740469
4401.654570
4455.791818
4351.762535
4450.819296
4421.549755
4425.512828
4442.634524
4423.063461
4495.864419
4349.366704
4360.132905
4411.546222
4422.466070
4426.720418
4404.562146
4429.688594
4432.235570
4423.858873
4436.501208
4435.764584
4431.598107
4427.647086
4427.138149
4424.520406
4439.588628
4408.628344
4432.945004
4418.559452
4445.766652
4406.524526
4428.133056
4390.152799
4453.325778
4371.194980
4551.090766
4373.466649
4435.236638
4454.231635
4413.647154
4454.671794
4334.811485
4486.932602
4455.407167
4424.951513
4477.813748
4425.897231
4430.448016
4427.220108
4432.619617
4432.284070
4424.315635
4434.989927
4429.795402
4440.181511
4423.826663
4433.096333
4421.358907
4447.774320
4410.399757
4445.497683
4415.065419
4453.301223
4388.376104
4512.109780
4311.047857
4418.583788
4384.777040
4434.165891
4420.741674
4446.221876
4445.665616
4490.479312
4431.368818
4405.805018
4476.764439
4445.874091
4412.314709
4430.805549
4432.168873
4434.634690
4433.507500
4431.998914
4440.069668
4414.010151
4441.291092
4416.757444
4436.062156
4417.155859
4440.013048
4404.075627
4446.691532
4374.817876
4476.942630
4363.801912
4471.283425
4363.492508
4538.254470
4381.704097
4436.213513
4426.020271
4447.642205
4467.343765
4472.866763
4455.301722
4392.290177
4399.029864
4427.180901
4419.533137
4431.259209
4437.523822
4418.539710
4439.478696
4431.980249
4435.958908
4424.572364
4440.024342
4406.627934
4449.512039
4422.312450
4439.912441
4418.559626
4447.288732
4405.688455
4468.969827
4397.489434
4514.240536
4379.113439
4468.458944
4433.045835
4413.453300
4387.970971
4387.631627
4378.832083
4443.255119
4438.359153
4408.890680
4418.315886
4422.304738
4432.583373
4431.140694
4429.132969
4430.398657
4440.047417
4406.866867
4442.056644
4424.219787
4426.328305
4418.218400
4449.090734
4394.066659
4438.266214
4411.227084
4435.333413
4441.494821
4458.698352
4430.166860
4454.314479
4452.094783
4414.681848
4389.899344
4435.019566
4471.014692
4456.258674
4423.222422
4434.914877
4413.335755
4451.471572
4437.815896
4442.083827
4414.108338
4431.432277
4424.970689
4423.325384
4416.898527
4423.462774
4445.925873
4417.905211
4439.839976
4422.320167
4445.185177
4419.853261
4432.071883
4419.542928
4439.476475
4450.920713
4400.908823
4459.882229
4447.358004
4369.304566
4463.144001
4411.959760
4427.310667
4413.862771
4427.428967
4436.767162
4386.153444
4450.328023
4443.838979
4402.653974
4438.772800
4434.662190
4426.087029
4436.016036
4435.259862
4419.407993
4434.042483
4421.864013
4423.296950
4446.437524
4421.942455
4421.385457
4441.021791
4415.134606
4427.493920
4457.452649
4412.066389
4391.714177
4426.674390
4414.779479
4435.351558
4424.753579
4412.637941
4427.671250
4411.987305
4438.133334
4464.949452
4410.385227
4384.481221
4435.660771
4437.306551
4434.757864
4412.659593
4428.601551
4432.462919
4413.735321
4440.355047
4425.444468
4421.740990
4446.411203
4410.739577
4449.666137
4418.419317
4441.336562
4436.954095
4413.803045
4403.203628
4447.969961
4458.157670
4427.077417
4462.331470
4428.165283
4428.487914
4415.414332
4425.282968
4431.512817
4428.240847
4440.480520
4444.597872
4417.971472
4409.873811
4470.136444
4448.249343
4425.866817
4429.394201
4436.068464
4437.327086
4432.899082
4428.688486
4418.083963
4437.382143
4421.235569
4429.208949
4427.750793
4407.388729
4437.926889
4411.685173
4442.093580
4420.855275
4423.103058
4475.186352
4402.044772
4458.205405
4407.969901
4412.936713
4439.925902
4440.666869
4404.554188
4394.843479
4393.211980
4445.473604
4439.709213
4415.424038
4422.948849
4452.642734
4432.747765
4427.147782
4423.333185
4420.565011
4431.383837
4443.199701
4407.660210
4445.590567
4406.465634
4443.652012
4433.445737
4424.419272
4429.307910
4457.922160
4414.471008
4402.798884
4414.101206
4383.655936
4432.469926
4435.410298
4391.374872
4435.952367
4418.733827
4427.052436
4458.332871
4452.115637
4409.763350
4353.964726
4457.841382
4388.732955
4419.064205
4439.899181
4429.682526
4434.447211
4447.594197
4415.268108
4425.889533
4423.066753
4438.039081
4421.569817
4417.771477
4414.579499
4414.908305
4446.684549
4416.885445
4393.064042
4473.906090
4411.525774
4466.656913
4489.611313
4417.196733
4440.874570
4434.246964
4422.959732
4422.399311
4423.656890
4438.971377
4440.220398
4460.089269
4464.839245
4487.955376
4454.361635
4433.552316
4433.512483
4430.177258
4413.209268
4438.314498
4424.846670
4439.184576
4410.776199
4438.244892
4414.301386
4430.500279
4447.383379
4461.530704
4435.807937
4429.873677
4359.447597
4412.761821
4485.729670
4570.300785
4389.940710
4379.720417
4425.938093
4419.712015
4437.514423
4450.178870
4414.578470
4460.570677
4429.700765
4403.106581
4408.148303
4446.825176
4428.721587
4438.100366
4435.725062
4421.647435
4444.796401
4396.038711
4439.792165
4427.549807
4395.998350
4427.591379
4446.595937
4427.839197
4402.951281
4409.859947
4446.044460
4431.253004
4520.319650
4344.451385
4324.722902
4458.981622
4393.261594
4427.197736
4428.545745
4454.952189
4478.476299
4444.101685
4443.883685
4431.597076
4388.801554
4421.374888
4413.077029
4433.592933
4429.686159
4427.035487
4425.783207
4426.579672
4448.982295
4417.248142
4421.188386
4449.602515
4447.211462
4448.533990
4418.306014
4472.659847
4393.603372
4437.963686
4437.217648
4402.845126
4486.498934
4468.074314
4421.902221
4406.599170
4424.798615
4410.261345
4467.763015
4368.210369
4461.152252
4471.717213
4424.349192
4403.709080
4432.505145
4429.671317
4437.733687
4426.351854
4433.315778
4450.081783
4415.648457
4439.131342
4392.484934
4446.461781
4446.754382
4403.872965
4415.814632
4426.169597
4420.479712
4458.565442
4420.253984
4431.475131
4396.144217
4467.904860
4383.076704
4392.059058
4419.457688
4426.851253
4433.946474
4440.508543
4392.001759
4468.869615
4435.703884
4395.758802
4458.464215
4423.864257
4438.337873
4425.188533
4432.739284
4421.236773
4431.476923
4427.285974
4422.259967
4447.832169
4410.528054
4414.845248
4426.922041
4432.801031
4462.258294
4437.766318
4436.117226
4408.200052
4452.577447
4393.480918
4435.106790
4422.594563
4437.350610
4387.290461
4423.771294
4431.059185
4419.073202
4452.160051
4422.440906
4471.321233
4469.676438
4415.067460
4425.412554
4419.626570
4420.637085
4434.027269
4428.287593
4416.027950
4445.931415
4399.927045
4457.579486
4404.333889
4447.651658
4430.643458
4410.541523
4406.861014
4439.473035
4412.425221
4407.201631
4450.359648
4373.160212
4462.679296
4425.872492
4552.389701
4377.318625
4471.113221
4418.591876
4411.599567
4440.154866
4382.727372
4460.874398
4400.423856
4414.937863
4426.848807
4423.626275
4431.532687
4426.194925
4428.890909
4423.377305
4419.424798
4445.341846
4404.528023
4437.718632
4396.491379
4431.284968
4458.614275
4421.476213
4438.557571
4433.375173
4446.831708
4434.120607
4472.546876
4473.649777
4391.141659
4385.721601
4438.456852
4418.101542
4435.031356
4466.688072
4442.270870
4404.341786
4424.810316
4454.453652
4465.452462
4421.987250
4409.167564
4433.029832
4424.261445
4430.641926
4441.273948
4410.144862
4450.118159
4405.395090
4421.144887
4425.520792
4411.020116
4412.509233
4411.770293
4457.910951
4424.464005
4396.401214
4464.036438
4428.763671
4400.922241
4395.776046
4458.005155
4415.333630
4449.431874
4419.398456
4425.330290
4440.252519
4394.777339
4381.964144
4455.214161
4358.281721
4421.519028
4443.508163
4427.616264
4437.230533
4422.504803
4427.719051
4431.678574
4402.818077
4440.560860
4419.863629
4423.283557
4444.606742
4399.665384
4445.770367
4460.263695
4419.182161
4390.602751
4456.640801
4419.719444
4415.106753
4451.884321
4450.886223
4429.777420
4423.952690
4415.418869
4462.432913
4405.093050
4431.557570
4477.337264
4338.332883
4489.483659
4389.702256
4421.489272
4422.561912
4430.564996
4426.890983
4420.577723
4440.850095
4427.933321
4425.612348
4421.185193
4400.763184
4440.777669
4422.485027
4440.028356
4392.028872
4433.276244
4426.404226
4422.458704
4412.907079
4449.381983
4401.647568
4431.682064
4424.756548
4408.608806
4431.963086
4426.077120
4431.205652
4454.457200
4439.299334
4404.653174
4448.673364
4438.093475
4442.457411
4428.994362
4426.421166
4436.041265
4433.982524
4406.644761
4430.969543
4400.987764
4444.401568
4444.590405
4424.636855
4432.917987
4430.848595
4442.594238
4453.624537
4389.992379
4452.584560
4401.510477
4453.737950
4436.685034
4472.400757
4412.776060
4420.866081
4460.234504
4413.187043
4435.779336
4452.742992
4430.205183
4458.546639
4418.667266
4421.607973
4433.982252
4434.821208
4431.179838
4413.262765
4441.602666
4431.519466
4436.448201
4440.800444
4417.660603
4409.084933
4447.244010
4435.699551
4443.014213
4441.659979
4428.642781
4428.708329
4439.135162
4404.024540
4449.340302
4364.636917
4427.064320
4431.138417
4415.604911
4465.917766
4441.451521
4416.221274
4392.057845
4445.564951
4438.925482
4446.268096
4410.708030
4419.343577
4422.521301
4440.455811
4431.261960
4423.767408
4412.204563
4423.883404
4408.032440
4451.163780
4430.234242
4433.664822
4403.022856
4462.388017
4398.925505
4408.808493
4394.958528
4452.587586
4429.468209
4461.029750
4419.737028
4436.707902
4427.607066
4433.050506
4425.578623
4408.177975
4423.012753
4454.127114
4417.446292
4417.402913
4476.729464
4409.532626
4441.366312
4429.608017
4430.004853
4420.099905
4434.871619
4431.078772
4446.982616
4431.075640
4421.999947
4407.082365
4441.807101
4408.671601
4416.311032
4421.216973
4447.952199
4422.334158
4455.673093
4407.201722
4455.958356
4420.160388
4435.995211
4413.680806
4423.967978
4424.428897
4430.659946
4413.218833
4416.497979
4426.138803
4436.157566
4423.434440
4401.494967
4431.365853
4432.538066
4426.736690
4425.504843
4442.227275
4416.704277
4409.116935
4437.238265
4431.378760
4433.076610
4421.870613
4440.122865
4434.764239
4427.874203
4442.735587
4389.327584
4446.021391
4400.429047
4453.240714
4429.180368
4431.227673
4408.261194
4427.961956
4417.373099
4427.353179
4471.740452
4405.209576
4404.486147
4448.211496
4406.132734
4437.445362
4406.162721
4422.056200
4427.160834
4437.656752
4413.635151
4440.518876
4443.974632
4425.486653
4421.464007
4435.493715
4428.300841
4412.365535
4434.683120
4442.998389
4397.038274
4434.423217
4424.841155
4424.048703
4374.055132
4368.118824
4460.795129
4433.677004
4406.639707
4420.371062
4403.420198
4453.355352
4419.487989
4412.285318
4464.133137
4423.325860
4424.030007
4446.218897
4430.538380
4432.785184
4427.410355
4427.250478
4434.514928
4398.632871
4439.956502
4438.047926
4418.619283
4441.071617
4461.923376
4409.070578
4438.845633
4435.458417
4438.261154
4394.077086
4423.242650
4499.061388
4469.702477
4427.221324
4434.856019
4430.407630
4428.113643
4420.043320
4418.012432
4419.707878
4441.242325
4411.835386
4429.034971
4417.632128
4436.262687
4434.039842
4430.313133
4426.959377
4440.769456
4423.629847
4450.059524
4433.760159
4409.708761
4437.486737
4414.814418
4414.817828
4434.247410
4447.996751
4415.459739
4436.596457
4459.925641
4384.620658
4457.764476
4402.884507
4386.169076
4430.226021
4435.346140
4426.327488
4397.124521
4474.498718
4399.543251
4413.373092
4424.022946
4469.272712
4357.033443
4412.918868
4432.191171
4436.365722
4433.781107
4429.116591
4415.071371
4439.339312
4404.938305
4440.649820
4423.151134
4448.188421
4445.050243
4422.969316
4410.276114
4461.202203
4427.627668
4432.188032
4398.214467
4393.520702
4466.458005
4458.451972
4443.795678
4402.088810
4399.600636
4431.170657
4437.068149
4448.893317
4372.180104
4476.251818
4431.039059
4453.417896
4416.796081
4439.958839
4437.420284
4420.738132
4435.725472
4434.983696
4425.289448
4408.563670
4396.999864
4444.886352
4419.697223
4400.688973
4454.678803
4427.643812
4429.474926
4396.487445
4437.443423
4462.323568
4448.751885
4334.960880
4473.900337
4461.530344
4431.487205
4472.262011
4427.500082
4438.512706
4459.654814
4441.764833
4429.610740
4402.794254
4411.067612
4436.893705
4434.830183
4436.318535
4425.339022
4440.340234
4404.167586
4451.920246
4414.029860
4428.036666
4425.884082
4456.459424
4409.149823
4433.101375
4409.073313
4429.086132
4411.500537
4448.864200
4369.468567
4450.156404
4320.358996
4496.898946
4439.303068
4420.112997
4425.321637
4498.826484
4425.124548
4437.431161
4396.596808
4469.356360
4354.593596
4434.272875
4447.498532
4432.786916
4435.726558
4424.769400
4437.568427
4425.622552
4429.643952
4413.731426
4450.729259
4407.172096
4411.359579
4439.491422
4436.070149
4413.766095
4454.775481
4381.889366
4462.827603
4392.220532
4478.199249
4468.807800
4506.932217
4417.150135
4419.280320
4370.584176
4426.541356
4415.234594
4442.743314
4455.627138
4442.898651
4437.047829
4353.767108
4454.325625
4423.600014
4426.711860
4431.532173
4423.951452
4409.995073
4411.250439
4430.067352
4426.185372
4448.765301
4445.863589
4419.766758
4447.641845
4405.464650
4440.278890
4431.162629
4430.335985
4434.350806
4424.057617
4432.788096
4502.279640
4444.910425
4429.043404
4438.762958
4421.829390
4403.307343
4451.384494
4415.953952
4441.285908
4432.042143
4447.534897
4412.263971
4423.115465
4423.899878
4441.811554
4429.174540
4451.269308
4443.288394
4440.687769
4446.303455
4396.708999
4413.561170
4435.824043
4447.372244
4422.122158
4403.444936
4420.994190
4421.256214
4461.805589
4408.119283
4390.796931
4431.647909
4391.775408
4422.066238
4424.383591
4434.693887
4427.868077
4449.996827
4384.161864
4386.490721
4481.668748
4460.770031
4405.774248
4432.756615
4432.227288
4405.742979
4423.659318
4433.809346
4421.374378
4395.332975
4431.527427
4445.594820
4428.086960
4449.234746
4425.808679
4453.397380
4426.585490
4438.168809
4468.390386
4375.934434
4446.076959
4432.777689
4447.036949
4430.283987
4440.125883
4426.742351
4443.656216
4439.608749
4455.882407
4478.307307
4445.274760
4391.648380
4417.630461
4400.217053
4427.879595
4423.905487
4441.608924
4447.803803
4398.904552
4434.159138
4432.567483
4432.180818
4422.087391
4417.062866
4426.357692
4415.111661
4417.474621
4407.481803
4427.144577
4401.371464
4433.186106
4416.814858
4432.513097
4439.437783
4433.296073
4432.760368
4431.040507
4420.294662
4440.690251
4436.633554
4404.585505
4493.283777
4396.600935
4453.517627
4428.025704
4430.268596
4425.671497
4416.657952
4412.852002
4439.400946
4430.793690
4404.263956
4417.570141
4428.721203
4443.883057
4422.908172
4454.649471
4416.809204
4444.722968
4435.985609
4436.651731
4417.721006
4393.013544
4430.798477
4447.763745
4432.514513
4403.964174
4446.155279
4426.314259
4438.848053
4441.007242
4440.933460
4439.937321
4350.024254
4393.529733
4404.423101
4415.925760
4430.122413
4436.637342
4407.580558
4436.990297
4398.050807
4429.798716
4447.701673
4410.420477
4390.826176
4385.964570
4437.152185
4428.942433
4422.054313
4407.068187
4456.448473
4478.011640
4372.064831
4444.993337
4434.633796
4432.970046
4423.674083
4436.079132
4430.658678
4418.137424
4468.087877
4434.792601
4379.203373
4449.004542
4470.688509
4414.232833
4425.082262
4429.241073
4418.910883
4438.305902
4415.248963
4425.448791
4455.605215
4442.277905
4459.721856
4427.007211
4411.817371
4429.697286
4463.771524
4406.363486
4445.096506
4422.398973
4395.777744
4400.180559
4376.592065
4421.292377
4441.548503
4434.208680
4417.372705
4436.576019
4406.812337
4427.014246
4400.059940
4389.553642
4451.069230
4407.880833
4427.281239
4431.779261
4428.980695
4414.479027
4448.547511
4408.802886
4430.393731
4405.705675
4432.701062
4438.678867
4393.459373
4430.923504
4433.495458
4416.194483
4415.946969
4446.721346
4407.849552
4414.239263
4454.038151
4463.417267
4437.504319
4438.966441
4431.833809
4440.224651
4408.917305
4457.119663
4447.234969
4431.929739
4457.734002
4458.590610
4430.348812
4403.532945
4418.582587
4437.920005
4423.834963
4415.685264
4435.900965
4417.089912
4433.404004
4441.158987
4421.903874
4430.414183
4453.446307
4410.993769
4448.050125
4419.418452
4426.223126
4426.367298
4426.511269
4426.623555
4394.859464
4463.688379
4440.974164
4434.967031
4406.719275
4456.699701
4414.118221
4443.379268
4387.260058
4419.534674
4370.509557
4398.590413
4409.713937
4429.492427
4426.918288
4430.656735
4427.981634
4428.327440
4433.212585
4410.733086
4409.302680
4425.124944
4429.666770
4426.695914
4427.709156
4406.237712
4433.293566
4436.467225
4408.580727
4430.359629
4463.899392
4391.445639
4434.496387
4417.565252
4400.992847
4437.525822
4425.261618
4445.010822
4466.148459
4432.999110
4414.922788
4407.709296
4458.864409
4452.082807
4429.032036
4423.940523
4427.461960
4443.988993
4408.510824
4423.892339
4453.978318
4439.584416
4431.167444
4445.364086
4436.188398
4420.763542
4423.649738
4437.150897
4453.331778
4420.890090
4427.722843
4443.443648
4445.187242
4339.218824
4402.094950
4426.009232
4420.647879
4436.458765
4461.434327
4483.655013
4435.091240
4444.416428
4424.076054
4402.145715
4377.556802
4426.815328
4436.972440
4426.659517
4417.180039
4440.230187
4425.550568
4408.045840
4413.451216
4416.498009
4413.064352
4446.463291
4427.823453
4418.529267
4404.906878
4450.401722
4383.419350
4428.820331
4476.881785
4391.289144
4535.802274
4392.099862
4426.550180
4415.958715
4426.058741
4448.260979
4434.089214
4423.404933
4454.769975
4481.677391
4448.415383
4418.563579
4430.145932
4436.032465
4418.315314
4430.133670
4421.827398
4428.893023
4441.125566
4435.792902
4432.607191
4437.506921
4411.627412
4431.967129
4397.974045
4446.875999
4441.171077
4448.690205
4425.702155
4406.841301
4431.562735
4426.902130
4471.984790
4445.956344
4463.209826
4424.000853
4462.302205
4478.936161
4407.124206
4425.690162
4466.597585
4434.982345
4463.316314
4432.586703
4428.291616
4431.938788
4436.813275
4406.693696
4443.100330
4396.011674
4453.251138
4420.433975
4418.493310
4430.121003
4430.977187
4429.835805
4440.334824
4396.571396
4446.618931
4416.602057
4407.310050
4435.629158
4450.749183
4442.750640
4438.527137
4456.080503
4470.596591
4449.746866
4434.386635
4382.769028
4379.827378
4369.553162
4350.750075
4403.059275
4431.841335
4434.583189
4416.779323
4418.465136
4435.979821
4442.228180
4415.949377
4444.588606
4440.607647
4447.021872
4422.428420
4443.463273
4428.545199
4422.329597
4457.407052
4419.708735
4411.036517
4450.200279
4392.599638
4431.733514
4452.128154
4416.973667
4436.370975
4431.467304
4463.535864
4444.822327
4380.381135
4459.125784
4452.071527
4414.122112
4446.259577
4429.337606
4426.079806
4439.246891
4422.081650
4430.247056
4405.815256
4413.371272
4437.861714
4480.087848
4424.181736
4429.123714
4425.603790
4422.610725
4448.950320
4398.157826
4443.764384
4426.230399
4449.959380
4390.667320
4411.103068
4417.221287
4433.235584
4379.660028
4441.325641
4374.025187
4413.892157
4442.547812
4464.268515
4470.042980
4401.286778
4418.582236
4432.479389
4420.787245
4422.557998
4439.100681
4450.016832
4444.815006
4423.099964
4411.826836
4394.101057
4421.508576
4392.759506
4448.745521
4437.467602
4424.125430
4446.934562
4435.118665
4423.429398
4460.941845
4470.899744
4380.854084
4427.688745
4420.953163
4435.162919
4415.566625
4389.942220
4444.549020
4389.738113
4459.396305
4429.135775
4416.973453
4401.446431
4426.931321
4432.653990
4429.867474
4416.951331
4423.792761
4416.030333
4428.854990
4436.053331
4417.415831
4420.067001
4436.342768
4436.281888
4404.212478
4437.550543
4412.935177
4393.242451
4441.083491
4459.325177