# vtk DataFile Version 2.0
mfree iwf
ASCII

DATASET UNSTRUCTURED_GRID
POINTS 6231 float
0.000000 0.000300 0.000000
0.000000 0.000310 0.000000
0.000000 0.000320 0.000000
0.000000 0.000330 0.000000
0.000000 0.000340 0.000000
0.000000 0.000350 0.000000
0.000000 0.000360 0.000000
0.000001 0.000370 0.000000
0.000001 0.000380 0.000000
0.000001 0.000390 0.000000
0.000001 0.000400 0.000000
0.000001 0.000410 0.000000
0.000001 0.000420 0.000000
0.000001 0.000430 0.000000
0.000001 0.000440 0.000000
0.000001 0.000450 0.000000
0.000002 0.000460 0.000000
0.000002 0.000470 0.000000
0.000002 0.000480 0.000000
0.000001 0.000492 0.000000
0.000006 0.000501 0.000000
0.001098 0.001138 0.000000
0.001172 0.001171 0.000000
0.001115 0.001144 0.000000
0.001185 0.001176 0.000000
0.001207 0.001180 0.000000
0.001256 0.001183 0.000000
0.001264 0.001181 0.000000
0.001276 0.001175 0.000000
0.001289 0.001172 0.000000
0.001318 0.001173 0.000000
0.000010 0.000300 0.000000
0.000010 0.000310 0.000000
0.000010 0.000320 0.000000
0.000010 0.000330 0.000000
0.000010 0.000340 0.000000
0.000010 0.000350 0.000000
0.000010 0.000360 0.000000
0.000011 0.000370 0.000000
0.000011 0.000380 0.000000
0.000011 0.000390 0.000000
0.000011 0.000400 0.000000
0.000011 0.000410 0.000000
0.000011 0.000420 0.000000
0.000011 0.000430 0.000000
0.000011 0.000440 0.000000
0.000011 0.000450 0.000000
0.000012 0.000460 0.000000
0.000011 0.000472 0.000000
0.000013 0.000478 0.000000
0.000009 0.000492 0.000000
0.000013 0.000498 0.000000
0.001226 0.001176 0.000000
0.001241 0.001177 0.000000
0.001249 0.001177 0.000000
0.001255 0.001175 0.000000
0.001271 0.001168 0.000000
0.001282 0.001166 0.000000
0.001296 0.001162 0.000000
0.001307 0.001163 0.000000
0.001312 0.001160 0.000000
0.001315 0.001168 0.000000
0.000020 0.000300 0.000000
0.000020 0.000310 0.000000
0.000020 0.000320 0.000000
0.000020 0.000330 0.000000
0.000021 0.000340 0.000000
0.000020 0.000350 0.000000
0.000021 0.000360 0.000000
0.000020 0.000370 0.000000
0.000020 0.000380 0.000000
0.000021 0.000390 0.000000
0.000020 0.000400 0.000000
0.000022 0.000410 0.000000
0.000020 0.000420 0.000000
0.000022 0.000430 0.000000
0.000020 0.000439 0.000000
0.000023 0.000451 0.000000
0.000021 0.000460 0.000000
0.000022 0.000470 0.000000
0.000021 0.000482 0.000000
0.000024 0.000494 0.000000
0.000020 0.000497 0.000000
0.001192 0.001166 0.000000
0.001221 0.001172 0.000000
0.001232 0.001173 0.000000
0.001237 0.001171 0.000000
0.001246 0.001163 0.000000
0.001261 0.001166 0.000000
0.001287 0.001159 0.000000
0.001302 0.001158 0.000000
0.001309 0.001149 0.000000
0.001316 0.001146 0.000000
0.000030 0.000300 0.000000
0.000030 0.000310 0.000000
0.000030 0.000320 0.000000
0.000031 0.000330 0.000000
0.000030 0.000340 0.000000
0.000031 0.000350 0.000000
0.000030 0.000360 0.000000
0.000030 0.000370 0.000000
0.000031 0.000380 0.000000
0.000031 0.000390 0.000000
0.000031 0.000400 0.000000
0.000031 0.000410 0.000000
0.000031 0.000419 0.000000
0.000032 0.000430 0.000000
0.000031 0.000440 0.000000
0.000031 0.000450 0.000000
0.000031 0.000459 0.000000
0.000036 0.000473 0.000000
0.000029 0.000478 0.000000
0.000032 0.000488 0.000000
0.000032 0.000497 0.000000
0.000063 0.000500 0.000000
0.001213 0.001167 0.000000
0.001230 0.001159 0.000000
0.001255 0.001156 0.000000
0.001265 0.001149 0.000000
0.001271 0.001161 0.000000
0.001275 0.001154 0.000000
0.001286 0.001150 0.000000
0.001292 0.001148 0.000000
0.001315 0.001138 0.000000
0.000040 0.000300 0.000000
0.000040 0.000310 0.000000
0.000040 0.000320 0.000000
0.000040 0.000331 0.000000
0.000040 0.000341 0.000000
0.000041 0.000349 0.000000
0.000040 0.000360 0.000000
0.000041 0.000370 0.000000
0.000040 0.000380 0.000000
0.000041 0.000390 0.000000
0.000041 0.000399 0.000000
0.000041 0.000410 0.000000
0.000041 0.000420 0.000000
0.000040 0.000430 0.000000
0.000042 0.000439 0.000000
0.000043 0.000450 0.000000
0.000042 0.000460 0.000000
0.000037 0.000469 0.000000
0.000045 0.000477 0.000000
0.000043 0.000496 0.000000
0.000040 0.000498 0.000000
0.000993 0.000999 0.000000
0.001220 0.001157 0.000000
0.001239 0.001155 0.000000
0.001243 0.001152 0.000000
0.001256 0.001158 0.000000
0.001275 0.001144 0.000000
0.001296 0.001138 0.000000
0.001294 0.001129 0.000000
0.001305 0.001141 0.000000
0.001312 0.001129 0.000000
0.000050 0.000300 0.000000
0.000050 0.000310 0.000000
0.000050 0.000320 0.000000
0.000050 0.000329 0.000000
0.000051 0.000339 0.000000
0.000050 0.000351 0.000000
0.000050 0.000360 0.000000
0.000050 0.000371 0.000000
0.000051 0.000379 0.000000
0.000050 0.000390 0.000000
0.000052 0.000400 0.000000
0.000049 0.000410 0.000000
0.000053 0.000419 0.000000
0.000051 0.000430 0.000000
0.000053 0.000440 0.000000
0.000047 0.000451 0.000000
0.000054 0.000458 0.000000
0.000052 0.000470 0.000000
0.000055 0.000483 0.000000
0.000048 0.000488 0.000000
0.000050 0.000498 0.000000
0.001211 0.001174 0.000000
0.001166 0.001162 0.000000
0.001232 0.001148 0.000000
0.001241 0.001135 0.000000
0.001260 0.001140 0.000000
0.001278 0.001137 0.000000
0.001269 0.001133 0.000000
0.001287 0.001137 0.000000
0.001302 0.001129 0.000000
0.001308 0.001118 0.000000
0.000060 0.000300 0.000000
0.000060 0.000310 0.000000
0.000060 0.000321 0.000000
0.000060 0.000332 0.000000
0.000061 0.000339 0.000000
0.000059 0.000349 0.000000
0.000061 0.000359 0.000000
0.000060 0.000369 0.000000
0.000062 0.000380 0.000000
0.000059 0.000390 0.000000
0.000063 0.000399 0.000000
0.000060 0.000410 0.000000
0.000064 0.000419 0.000000
0.000058 0.000430 0.000000
0.000065 0.000439 0.000000
0.000061 0.000449 0.000000
0.000065 0.000460 0.000000
0.000055 0.000471 0.000000
0.000064 0.000475 0.000000
0.000068 0.000485 0.000000
0.000058 0.000496 0.000000
0.001201 0.001173 0.000000
0.001210 0.001158 0.000000
0.001226 0.001139 0.000000
0.001247 0.001143 0.000000
0.001257 0.001130 0.000000
0.001258 0.001121 0.000000
0.001288 0.001119 0.000000
0.001279 0.001127 0.000000
0.001297 0.001118 0.000000
0.001305 0.001110 0.000000
0.000070 0.000300 0.000000
0.000070 0.000310 0.000000
0.000070 0.000319 0.000000
0.000070 0.000328 0.000000
0.000071 0.000340 0.000000
0.000070 0.000351 0.000000
0.000072 0.000359 0.000000
0.000068 0.000372 0.000000
0.000082 0.000376 0.000000
0.000069 0.000390 0.000000
0.000073 0.000400 0.000000
0.000068 0.000411 0.000000
0.000074 0.000421 0.000000
0.000068 0.000429 0.000000
0.000076 0.000439 0.000000
0.000066 0.000452 0.000000
0.000078 0.000458 0.000000
0.000072 0.000470 0.000000
0.000076 0.000486 0.000000
0.000068 0.000495 0.000000
0.000076 0.000496 0.000000
0.000984 0.000979 0.000000
0.001200 0.001161 0.000000
0.001221 0.001150 0.000000
0.001239 0.001119 0.000000
0.001256 0.001140 0.000000
0.001269 0.001121 0.000000
0.001279 0.001120 0.000000
0.001273 0.001110 0.000000
0.001293 0.001109 0.000000
0.001301 0.001100 0.000000
0.000080 0.000300 0.000000
0.000080 0.000310 0.000000
0.000081 0.000321 0.000000
0.000079 0.000332 0.000000
0.000082 0.000340 0.000000
0.000080 0.000350 0.000000
0.000082 0.000361 0.000000
0.000074 0.000371 0.000000
0.000075 0.000384 0.000000
0.000080 0.000391 0.000000
0.000090 0.000397 0.000000
0.000079 0.000410 0.000000
0.000086 0.000417 0.000000
0.000078 0.000430 0.000000
0.000086 0.000445 0.000000
0.000076 0.000448 0.000000
0.000084 0.000464 0.000000
0.000074 0.000470 0.000000
0.000088 0.000472 0.000000
0.000085 0.000483 0.000000
0.000084 0.000495 0.000000
0.001191 0.001172 0.000000
0.001162 0.001168 0.000000
0.001224 0.001129 0.000000
0.001235 0.001137 0.000000
0.001248 0.001127 0.000000
0.001252 0.001113 0.000000
0.001263 0.001113 0.000000
0.001282 0.001107 0.000000
0.001289 0.001100 0.000000
0.001296 0.001091 0.000000
0.000090 0.000300 0.000000
0.000090 0.000310 0.000000
0.000090 0.000319 0.000000
0.000090 0.000329 0.000000
0.000091 0.000339 0.000000
0.000089 0.000350 0.000000
0.000092 0.000362 0.000000
0.000088 0.000369 0.000000
0.000092 0.000379 0.000000
0.000089 0.000387 0.000000
0.000084 0.000404 0.000000
0.000093 0.000409 0.000000
0.000086 0.000425 0.000000
0.000096 0.000426 0.000000
0.000090 0.000435 0.000000
0.000097 0.000455 0.000000
0.000087 0.000453 0.000000
0.000098 0.000472 0.000000
0.000106 0.000480 0.000000
0.000089 0.000494 0.000000
0.000094 0.000495 0.000000
0.001002 0.001015 0.000000
0.001194 0.001155 0.000000
0.001183 0.001162 0.000000
0.001213 0.001147 0.000000
0.001229 0.001117 0.000000
0.001257 0.001104 0.000000
0.001269 0.001103 0.000000
0.001277 0.001097 0.000000
0.001285 0.001091 0.000000
0.001292 0.001083 0.000000
0.000100 0.000300 0.000000
0.000100 0.000310 0.000000
0.000100 0.000321 0.000000
0.000100 0.000331 0.000000
0.000101 0.000341 0.000000
0.000099 0.000349 0.000000
0.000101 0.000359 0.000000
0.000100 0.000370 0.000000
0.000102 0.000380 0.000000
0.000100 0.000391 0.000000
0.000101 0.000400 0.000000
0.000103 0.000407 0.000000
0.000101 0.000417 0.000000
0.000100 0.000437 0.000000
0.000108 0.000442 0.000000
0.000096 0.000445 0.000000
0.000107 0.000460 0.000000
0.000096 0.000465 0.000000
0.000094 0.000481 0.000000
0.000106 0.000491 0.000000
0.000101 0.000494 0.000000
0.001121 0.001148 0.000000
0.001130 0.001153 0.000000
0.001156 0.001165 0.000000
0.001236 0.001125 0.000000
0.001245 0.001112 0.000000
0.001246 0.001101 0.000000
0.001267 0.001094 0.000000
0.001258 0.001091 0.000000
0.001280 0.001085 0.000000
0.001287 0.001074 0.000000
0.000110 0.000300 0.000000
0.000110 0.000310 0.000000
0.000110 0.000319 0.000000
0.000110 0.000329 0.000000
0.000110 0.000339 0.000000
0.000111 0.000351 0.000000
0.000109 0.000361 0.000000
0.000112 0.000370 0.000000
0.000110 0.000379 0.000000
0.000110 0.000389 0.000000
0.000112 0.000399 0.000000
0.000111 0.000414 0.000000
0.000116 0.000423 0.000000
0.000105 0.000427 0.000000
0.000114 0.000432 0.000000
0.000107 0.000450 0.000000
0.000116 0.000462 0.000000
0.000110 0.000470 0.000000
0.000116 0.000480 0.000000
0.000111 0.000493 0.000000
0.000119 0.000492 0.000000
0.001066 0.001106 0.000000
0.001012 0.001035 0.000000
0.001188 0.001150 0.000000
0.001208 0.001138 0.000000
0.001197 0.001134 0.000000
[...]
POINT_DATA 6231
SCALARS density float 1
LOOKUP_TABLE default
4415.642767
4428.140452
4423.677597
4422.469982
4422.353886
4421.875419
4426.831868
4428.299759
4428.376205
4430.131501
4429.497214
4433.466237
4429.000588
4429.301298
4431.153812
4440.186261
4423.621261
4432.201550
4413.441528
4424.305714
4411.272453
4430.812133
4423.061661
4443.891060
4436.198908
4419.381004
4400.711605
4426.413535
4448.979043
4450.093357
4416.523458
4419.704176
4426.296589
4424.825272
4428.351864
4432.099646
4430.502841
4423.597916
4426.651076
4427.596139
4428.836157
4423.437696
4425.262110
4423.799489
4439.092127
4417.045280
4427.377688
4410.969505
4441.008497
4463.274271
4459.484298
4416.215093
4411.200098
4415.831917
4438.916980
4501.703387
4400.211135
4403.015527
4426.418608
4398.510909
4450.576950
4437.605750
4420.417368
4428.861825
4427.340022
4426.764224
4419.947442
4427.485501
4428.074825
4434.816307
4421.707144
4432.064395
4429.350052
4441.855833
4422.495558
4436.155051
4417.183230
4473.750446
4401.535041
4455.524920
4351.887754
4450.982115
4421.584423
4425.361390
4443.508398
4422.552005
4497.325109
4347.300993
4360.035684
4411.510803
4425.756255
4426.043591
4405.515811
4428.889381
4432.008434
4425.595040
4432.593124
4435.377972
4431.441283
4426.575781
4431.071733
4424.763428
4439.495122
4410.593604
4430.232937
4418.279990
4445.353250
4406.889928
4428.360279
4390.094313
4452.789543
4372.118734
4550.457285
4373.740377
4435.479437
4454.063157
4413.597372
4453.449098
4338.453849
4486.369791
4456.084693
4422.004727
4476.766798
4427.204829
4429.903010
4427.259750
4431.047500
4434.111636
4427.260370
4432.886076
4430.428896
4435.957522
4424.879979
4430.402478
4421.744938
4449.761878
4410.715967
4445.365604
4414.907070
4452.471619
4387.991605
4512.547224
4310.819563
4418.642850
4384.822977
4431.608732
4420.618005
4446.034038
4454.034386
4492.846096
4429.605019
4406.125406
4474.240151
4443.400524
4412.701667
4431.267477
4432.550478
4434.888992
4433.739916
4428.511438
4438.781349
4419.667796
4437.501975
4421.744222
4436.876569
4416.341091
4439.431562
4402.610213
4447.255638
4374.260333
4477.511272
4363.974395
4471.231048
4363.785665
4538.826257
4381.377950
4436.079425
4426.149707
4445.533806
4460.478529
4471.500843
4452.323861
4386.168778
4404.450581
4429.053273
4419.208960
4431.583995
4436.879658
4418.306066
4439.960488
4436.761198
4439.616918
4415.544386
4444.347843
4399.837112
4448.914684
4424.583476
4439.832539
4420.573289
4446.687784
4406.795577
4468.501501
4397.408486
4514.312549
4378.629241
4467.907598
4433.107271
4413.787773
4386.701499
4386.287757
4375.726163
4450.705283
4437.350412
4406.657642
4419.313659
4423.755039
4430.624398
4431.313803
4428.082979
4432.609785
4438.733981
4398.010844
4446.177833
4427.003857
4428.348853
4412.069966
4449.872818
4388.815684
4437.108971
4409.416563
4435.159251
4440.250733
4458.640409
4430.109138
4454.387392
4452.969279
4414.855528
4389.659114
4434.151859
4470.745916
4456.225842
4414.198537
4432.556920
4419.583038
4453.254735
4434.119102
4446.130781
4412.545658
4431.025745
4426.278301
4420.152643
4419.574189
4431.680254
4443.441281
4416.790855
4438.570344
4425.692774
4445.807974
4415.918289
4433.774513
4417.478789
4439.703418
4451.072885
4401.672307
4459.551735
4447.579504
4371.261359
4462.810203
4411.736030
4427.445293
4414.443835
4425.206327
4438.955813
4381.731647
4451.334675
4443.160309
4401.438103
4438.630960
4434.817631
4424.716906
4435.688114
4437.804692
4414.501652
4432.331596
4416.599351
4432.864072
4445.384343
4425.739002
4420.348592
4446.215978
4413.544992
4428.613489
4458.883859
4411.737245
4394.945668
4427.114900
4413.804762
4436.026966
4424.564415
4412.677788
4428.727745
4414.632139
4436.854156
4465.840902
4410.051254
4384.540037
4436.815775
4438.448372
4434.639861
4413.446942
4429.860004
4429.687422
4418.406137
4440.774901
4428.917632
4425.518603
4442.362843
4408.535240
4445.827875
4422.221451
4440.630307
4438.062072
4415.912729
4403.268172
4451.939447
4457.211392
4430.529252
4460.049987
4428.663980
4428.197992
4415.323397
4425.330894
4430.518161
4427.690407
4450.897371
4450.320515
4412.354811
4410.060566
4469.644166
4447.044701
4425.890041
4431.239806
4435.770114
4436.405243
4430.077703
4428.955769
4419.040384
4432.810103
4432.369213
4427.201384
4426.239392
4408.074789
4442.113468
4408.419562
4440.415848
4421.584527
4416.766329
4475.381714
4401.807518
4459.432173
4407.612611
4412.242817
4439.610698
4438.680369
4404.742939
4393.252191
4393.454045
4444.993063
4441.325843
4414.004890
4423.492252
4452.203268
4433.295327
4429.058284
4423.457650
4425.612329
4425.958002
4443.132962
4411.065662
4440.693967
4403.135658
4445.413087
4437.053320
4419.256504
4429.894471
4457.591802
4413.809649
4403.952823
4415.569293
4381.405099
4433.679921
4435.463062
4392.357532
4436.252742
4418.675101
4427.338524
4456.738197
4451.343987
4415.089937
4353.535883
4459.161519
4388.417262
4419.188949
4439.527507
4430.003751
4431.216600
4446.675300
4415.043624
4434.360630
4422.992812
4433.232848
4431.462144
4412.909066
4413.213135
4417.920452
4450.337992
4414.685704
4393.821473
4472.833798
4411.078372
4468.295976
4487.832332
4417.241455
4440.464098
4434.439511
4421.691452
4422.756256
4424.599053
4438.148416
4444.278972
4459.604481
4464.561476
4488.413682
4454.161408
4431.867103
4434.309046
4432.415142
4413.309240
4438.211187
4420.537213
4435.904286
4421.381486
4429.046968
4415.162860
4433.330023
4436.202222
4456.080597
4430.681516
4431.248574
4357.454476
4411.009524
4484.880625
4570.217345
4390.949493
4380.061734
4426.588851
4419.281436
4436.231083
4451.098738
4413.346384
4458.669757
4426.613260
4404.212490
4407.644847
4446.266517
4428.296231
4436.919127
4434.092748
4420.284880
4448.207258
4399.004496
4438.215570
4422.992387
4403.054922
4424.235557
4449.150740
4431.958956
4413.176475
4415.407615
4444.883047
4435.192596
4521.764428
4344.284685
4325.532852
4458.028660
4392.820496
4428.801726
4429.477302
4452.893491
4479.888003
4444.225667
4443.788693
4433.367820
4391.441557
4422.135477
4413.175924
4433.486155
4429.826947
4428.475246
4427.870714
4422.680404
4445.864380
4420.645607
4419.134042
4438.764635
4447.228531
4450.085133
4419.090293
4461.962647
4394.442847
4436.655663
4436.160479
4402.563442
4486.565263
4469.101489
4422.222244
4406.483690
4425.133994
4411.889240
4465.535689
4367.826096
4461.268289
4470.095974
4423.767569
4404.444298
4432.317851
4429.885306
4435.490131
4425.324298
4431.950619
4447.658927
4423.540723
4437.789364
4394.537689
4441.288797
4443.885018
4407.709674
4419.749272
4426.163648
4420.049606
4455.302532
4421.432784
4431.316796
4397.355087
4468.329757
4382.074902
4393.975427
4419.464827
4427.359404
4432.090905
4438.337410
4394.881309
4471.799082
4439.166740
4395.795007
4460.939526
4424.857104
4437.956529
4425.972323
4433.352302
4423.456595
4427.622227
4423.917461
4422.722481
4443.920961
4413.573099
4419.209744
4429.555971
4427.787693
4456.651633
4437.652514
4435.238707
4406.389179
4454.040012
4391.221759
4434.811227
4422.419863
4437.109774
4387.720421
4423.292138
4432.747834
4423.628004
4452.007035
4421.839018
4471.441600
4469.932243
4414.115036
4424.577589
4420.734653
4422.123173
4430.092470
4427.074974
4420.779515
4444.792069
4403.307896
4457.156619
4407.039905
4445.421953
4425.520741
4409.984712
4412.556192
4436.059196
4413.746782
4411.984642
4449.415055
4375.447235
4464.224380
4426.154807
4552.209513
4377.581729
4470.369765
4418.326622
4407.874054
4444.273974
4379.270908
4464.433086
4399.080738
4414.019210
4424.129913
4422.682389
4429.489712
4428.694855
4430.848814
4419.654233
4421.738097
4444.727322
4400.713550
4432.041209
4396.768010
4431.712710
4460.196704
4425.721896
4433.608852
4437.111416
4443.140751
4431.743582
4471.821771
4472.787443
4390.462479
4385.170612
4438.992752
4417.101083
4433.174825
4465.466495
4443.098326
4404.839937
4425.553676
4454.307919
4463.729385
4422.413933
4410.669430
4433.631496
4425.169642
4428.587640
4442.062113
4412.075767
4447.316379
4409.002371
4424.577342
4424.860515
4414.255979
4412.782524
4414.884746
4457.555517
4426.067361
4395.225429
4467.691677
4426.715617
4399.918672
4396.651597
4458.738539
4415.243468
4449.659859
4418.773316
4427.353397
4436.856173
4390.816144
4379.217122
4454.487207
4358.366951
4423.651188
4442.189132
4429.256951
4433.492469
4424.505832
4432.032896
4427.054091
4399.943574
4439.592470
4425.609238
4415.775207
4445.146026
4399.633618
4446.720123
4459.232750
4416.647780
4390.942460
4455.174865
4419.023348
4416.106771
4453.608848
4451.167333
4430.032030
4423.718367
4417.894342
4460.469863
4404.089484
4427.213643
4477.860584
4338.369574
4487.539022
4389.426068
4420.926268
4422.503582
4431.570602
4429.973570
4414.779120
4440.069259
4437.447346
4422.827774
4419.553978
4404.600027
4438.920100
4423.465807
4442.634780
4392.927204
4437.263097
4428.916752
4419.926345
4412.138565
4448.312527
4399.636979
4433.062990
4425.076045
4409.172670
4433.160177
4423.935839
4433.181061
4456.414456
4433.849400
4404.578224
4449.798997
4436.886460
4442.564394
4426.825565
4426.625788
4432.379208
4436.264303
4404.267121
4423.957812
4408.983134
4439.137859
4442.965152
4426.820748
4433.301623
4430.758362
4440.751846
4454.443242
4385.790750
4451.715537
4401.560883
4455.559044
4435.330520
4472.260514
4412.029635
4421.695542
4458.633923
4412.247671
4436.325001
4456.784053
4430.204363
4458.945227
4420.727702
4421.544518
4433.053551
4433.702146
4435.612827
4410.807124
4441.143539
4435.091164
4437.572844
4438.918834
4418.985128
4410.976438
4445.506701
4436.181931
4443.004058
4440.266294
4431.795454
4430.934012
4436.194840
4402.922815
4448.448432
4363.344028
4427.568404
4431.273768
4416.027438
4463.581931
4439.810083
4417.053893
4389.305780
4446.333932
4439.336126
4445.445524
4410.585896
4418.955719
4421.757326
4440.794200
4424.555799
4424.984927
4405.030456
4433.647445
4400.614279
4455.221877
4433.252795
4439.274672
4404.124640
4464.041417
4399.906138
4406.960847
4394.914518
4448.784429
4432.379365
4462.292056
4419.317399
4434.116831
4428.772805
4433.062102
4424.367996
4404.553851
4423.102611
4452.925625
4421.263333
4413.562444
4475.229307
4408.807078
4441.325487
4427.687778
4431.655120
4422.277003
4440.395335
4433.336841
4442.142172
4426.557846
4427.530332
4397.485912
4450.153426
4403.773863
4415.486325
4423.962872
4451.281197
4422.039014
4454.274888
4405.198259
4455.584135
4421.836357
4437.892240
4412.762356
4424.944157
4426.315776
4430.644914
4415.765719
4415.625929
4426.443776
4440.338029
4423.617712
4400.966323
4430.280781
4431.481461
4425.644886
4424.259862
4429.121381
4419.226661
4416.680058
4434.890359
4428.377972
4431.285263
4423.296949
4434.149454
4444.839809
4423.104582
4441.277793
4390.447835
4445.464205
4401.881688
4454.555351
4426.491823
4432.699006
4409.451517
4431.436727
4416.983894
4428.649171
4471.635281
4401.029489
4405.252851
4446.843726
4408.566235
4437.132065
4407.898438
4423.836410
4423.313829
4442.954608
4422.244666
4442.733704
4436.597036
4424.753809
4423.192237
4444.214242
4424.453167
4413.305929
4437.318339
4439.125389
4404.261372
4425.776184
4429.790193
4418.138628
4376.783743
4374.009862
4459.125814
4430.035654
4407.517155
4424.182785
4405.846349
4451.892647
4420.598714
4407.486730
4464.292498
4423.128802
4424.160068
4445.722788
4432.684939
4431.442779
4424.530522
4419.132658
4430.443502
4400.980985
4446.243716
4436.889462
4403.470610
4443.187930
4465.276945
4405.906707
4436.889978
4440.899968
4438.810402
4398.260305
4421.827366
4493.709303
4466.344924
4427.896541
4435.782242
4434.384909
4433.785308
4419.560936
4420.721902
4418.236041
4438.687736
4411.460468
4430.868158
4417.970095
4435.921698
4433.567593
4431.990800
4429.312114
4449.576115
4419.751019
4452.476564
4419.323029
4424.225529
4453.999326
4411.036905
4408.853858
4445.733605
4448.415499
4405.492858
4432.142039
4458.101862
4386.405979
4452.262968
4403.821085
4387.341008
4430.566036
4434.704267
4427.172065
4391.123191
4474.727285
4399.970976
4414.340670
4422.149241
4472.273268
4357.513741
4413.877441
4433.382540
4434.712679
4427.070571
4428.613551
4412.096428
4450.613237
4395.393505
4426.264317
4406.861245
4460.702604
4447.104970
4414.205730
4409.439814
4466.727945
4438.364383
4433.346008
4394.335542
4391.463016
4466.230295
4457.579910
4442.615564
4403.615175
4404.419238
4431.527320
4441.260862
4443.800897
4370.831647
4477.085786
4433.190744
4453.388892
4417.042549
4436.717982
4437.667771
4425.517002
4434.471380
4445.388630
4421.922003
4423.625680
4405.208960
4455.453221
4419.149003
4401.399395
4457.161644
4431.918516
4419.498470
4391.137835
4440.421981
4461.944154
4448.920153
4332.742701
4473.214545
4463.331156
4433.125870
4471.195242
4423.294435
4441.377768
4458.157984
4442.358873
4427.918112
4405.753817
4410.950368
4436.707883
4432.307371
4433.764559
4424.920624
4428.195070
4409.008411
4439.498259
4441.912520
4411.511257
4423.252168
4456.256933
4411.429974
4434.041233
4403.747655
4441.503410
4406.977175
4449.372858
4367.702414
4449.990884
4317.161117
4498.754147
4438.130549
4418.589823
4429.604986
4489.900557
4426.965644
4437.913281
4398.511512
4472.658675
4354.638687
4432.429211
4446.996769
4434.110146
4435.200804
4427.128985
4438.166221
4429.418298
4432.739752
4424.503330
4444.946952
4411.588550
4417.596404
4425.900490
4438.848509
4408.655890
4466.103315
4372.522303
4464.304338
4390.444049
4480.358279
4471.592986
4507.342615
4413.942039
4418.958311
4381.560246
4437.023813
4410.530732
4440.857019
4451.749646
4445.217692
4443.665079
4350.235176
4454.242127
4427.608715
4424.780838
4433.284345
4423.285821
4403.528589
4419.627586
4407.437092
4419.750846
4436.419932
4447.619569
4423.367465
4449.019341
4408.846611
4427.743324
4442.730298
4433.017395
4434.109618
4425.776964
4432.168240
4504.706843
4447.543553
4429.786446
4439.473093
4423.729543
4391.017063
4459.417141
4420.847454
4440.428107
4436.798474
4444.399396
4411.508781
4426.450246
4423.440026
4444.480053
4432.512108
4453.652266
4436.021231
4448.335897
4443.818978
4388.735730
4400.408637
4446.652677
4455.290785
4422.011966
4395.354055
4410.216698
4417.080993
4464.170241
4403.378641
4391.208475
4431.049989
4391.926934
4418.946597
4425.066571
4435.707916
4410.648595
4446.076657
4383.083266
4391.718089
4480.423865
4466.886081
4406.056038
4432.560202
4434.914864
4405.630068
4430.524306
4442.530829
4421.404159
4395.797652
4428.129491
4445.915232
4413.774417
4458.018660
4416.202509
4446.518055
4431.416600
4447.301181
4471.656279
4375.001802
4439.559057
4434.883661
4445.142544
4430.617044
4439.890700
4424.246256
4448.796139
4441.014824
4464.142950
4469.881532
4442.970706
4386.704834
4419.428588
4399.621604
4430.659159
4423.142589
4444.022187
4446.456288
4399.612519
4447.922418
4439.149476
4450.009334
4408.464424
4424.170628
4440.262633
4420.649560
4413.427013
4418.478014
4428.794549
4398.741934
4432.115522
4418.188258
4439.926639
4439.905058
4431.551940
4427.544291
4431.499103
4420.272333
4432.782779
4440.210619
4415.127293
4491.892253
4399.234425
4453.667658
4427.420436
4430.664619
4426.150560
4414.650173
4419.996464
4434.802247
4424.007401
4398.785872
4430.638821
4430.983810
4455.266285
4392.523339
4469.659482
4411.933876
4444.740883
4422.965506
4442.910558
4415.437483
4394.154441
4430.600763
4453.606119
4432.669425
4405.755349
4461.828405
4424.931943
4423.782490
4438.315671
4433.471306
4439.367982
4353.100442
4392.861501
4404.703954
4416.304864
4432.898126
4436.201726
4407.627045
4445.389608
4406.886308
4422.481198
4449.571084
4407.558666
4396.967247
4395.888167
4445.202713
4419.783061
4405.436230
4423.307025
4461.181657
4471.241182
4370.793591
4445.123864
4433.165095
4429.428635
4422.281091
4436.258832
4424.491897
4441.408037
4465.654199
4441.490358
4371.282703
4447.007195
4469.998305
4414.816197
4425.192984
4431.105699
4417.860684
4449.464794
4407.299695
4432.437406
4455.638447
4452.295858
4446.184736
4436.746677
4407.633902
4429.602521
4460.059578
4416.022653
4449.618351
4414.343749
4392.736333
4418.349604
4365.130360
4420.948796
4440.062637
4434.604326
4424.376256
4439.658582
4405.954908
4419.802194
4400.919976
4377.348122
4451.512450
4405.209203
4429.430138
4432.912383
4431.556238
4411.011294
4451.837665
4404.420135
4425.096532
4399.428509
4438.177793
4437.648048
4395.227085
4424.431984
4438.896647
4413.603094
4403.760413
4447.214771
4435.963538
4399.723257
4469.558242
4459.075141
4443.584318
4435.846407
4431.285512
4440.418738
4413.771435
4453.536775
4423.683286
4451.695669
4471.702161
4462.998599
4431.795864
4404.627096
4418.826389
4438.324603
4426.595715
4407.596287
4437.491796
4430.470374
4430.215004
4444.126733
4424.568140
4435.199824
4454.641039
4409.385601
4441.647052
4444.949460
4417.901329
4404.817956
4414.842260
4430.164111
4398.308125
4463.627872
4438.749512
4434.616407
4407.513357
4454.108936
4418.140010
4454.145970
4383.853621
4415.014970
4354.164094
4398.735926
4407.898975
4432.384663
4418.380292
4438.940024
4428.264460
4425.613393
4427.459739
4415.160723
4408.134693
4419.780654
4429.713812
4440.259408
4433.680295
4400.086733
4432.333389
4450.306114
4413.605755
4425.708438
4470.596798
4383.480332
4435.411046
4413.935381
4404.945169
4437.241486
4424.545108
4440.314195
4460.649062
4439.415422
4399.489876
4405.740485
4464.594457
4447.598008
4432.672061
4422.951569
4426.292342
4440.113427
4416.714580
4420.877460
4458.059349
4440.555295
4427.500264
4440.619022
4438.462664
4424.886326
4433.123993
4434.056101
4448.780805
4434.541086
4410.911093
4445.930458
4446.615481
4329.741599
4398.185028
4426.609570
4420.460682
4436.626180
4458.436913
4481.971157
4424.648092
4449.838685
4436.685263
4400.073179
4370.195787
4424.541539
4439.458676
4427.999613
4417.481603
4439.235106
4429.876626
4402.570416
4415.077547
4426.026211
4414.292038
4429.797909
4424.629115
4418.542304
4398.912260
4445.365166
4386.289162
4429.444439
4473.682042
4395.678792
4537.713338
4391.812292
4427.038561
4416.241913
4425.464729
4449.167141
4437.548251
4424.509527
4445.527969
4489.036314
4446.803560
4424.001800
4429.485601
4433.409574
4419.171717
4427.487395
4424.617197
4433.362099
4449.138175
4433.351095
4437.294105
4436.502529
4420.548572
4422.987209
4398.381287
4448.944397
4437.880560
4449.398726
4422.638517
4413.286592
4430.164104
4425.562566
4473.355722
4447.700106
4463.007327
4423.991031
4463.538611
4478.469098
4405.973391
4427.225055
4481.159754
4432.663487
4470.283143
4433.470819
4427.766650
4432.480907
4435.601883
4406.905213
4434.450534
4391.228402
4449.081767
4425.658501
4412.438673
4436.804448
4424.387846
4429.289030
4438.977429
4394.350635
4449.691576
4408.222582
4413.537965
4428.946104
4450.010114
4446.520774
4438.896629
4456.977497
4469.413859
4448.469435
4434.620384
4383.184148
4386.130195
4375.416790
4348.332068
4399.947445
4431.200152
4432.528120
4418.238858
4418.212873
4438.029077
4442.834251
4418.614770
4434.932674
4438.170976
4452.376490
4416.351376
4446.630033
4422.692653
4426.145599
4455.895272
4419.600854
4408.369948
4450.087489
4395.342081
4433.279531
4453.611240
4414.077377
4436.398178
4430.724056
4463.603291
4447.901175
4367.410298
4458.223191
4454.108388
4401.360889
4447.355811
4429.167843
4426.703137
4437.689426
4420.739646
4426.623042
4408.274603
4420.353527
4434.587057
4483.136460
4422.119158
4419.071695
4434.170463
4423.971171
4442.654077
4400.309517
4442.528475
4425.250171
4444.213421
4392.654960
4409.981918
4419.144421
4433.296874
4381.038437
4439.207574
4375.740165
4413.566129
4444.333819
4466.287173
4471.499713
4393.853514
4422.334442
4432.322865
4421.309150
4421.703671
4434.434354
4452.497384
4449.227408
4416.283543
4414.748247
4393.538139
4421.563074
4399.399696
4450.130217
4437.417690
4421.598948
4447.317757
4434.922135
4423.323301
4461.345400
4470.833911
4379.960401
4429.413177
4421.283878
4435.822450
4416.474633
4389.556569
4444.129910
4388.839597
4459.596894
4426.575095
4416.405766
4407.139715
4425.488503
4432.853073
4429.656125
4424.076078
4420.637558
4420.196160
4424.059413
4439.208792
4417.815117
4421.514796
4430.437180
4444.111790
4400.516006
4441.639838
4414.976537
4400.041051
4445.147883
4459.713554