# vtk DataFile Version 2.0
mfree iwf
ASCII

DATASET UNSTRUCTURED_GRID
POINTS 6231 float
0.000000 0.000300 0.000000
0.000000 0.000310 0.000000
0.000000 0.000320 0.000000
0.000000 0.000330 0.000000
0.000000 0.000340 0.000000
0.000001 0.000350 0.000000
0.000001 0.000361 0.000000
0.000001 0.000371 0.000000
0.000001 0.000381 0.000000
0.000001 0.000391 0.000000
0.000001 0.000401 0.000000
0.000001 0.000411 0.000000
0.000001 0.000421 0.000000
0.000001 0.000431 0.000000
0.000002 0.000441 0.000000
0.000002 0.000451 0.000000
0.000002 0.000461 0.000000
0.000002 0.000471 0.000000
0.000002 0.000480 0.000000
0.000002 0.000492 0.000000
0.000006 0.000501 0.000000
0.000086 0.000521 0.000000
0.000086 0.000554 0.000000
0.000086 0.000542 0.000000
0.000086 0.000564 0.000000
0.000086 0.000572 0.000000
0.000086 0.000589 0.000000
0.000086 0.000591 0.000000
0.000086 0.000604 0.000000
0.000086 0.000618 0.000000
0.000087 0.000661 0.000000
0.000010 0.000300 0.000000
0.000010 0.000310 0.000000
0.000010 0.000320 0.000000
0.000010 0.000330 0.000000
0.000010 0.000340 0.000000
0.000010 0.000351 0.000000
0.000011 0.000360 0.000000
0.000011 0.000370 0.000000
0.000011 0.000380 0.000000
0.000011 0.000391 0.000000
0.000011 0.000400 0.000000
0.000011 0.000411 0.000000
0.000011 0.000420 0.000000
0.000011 0.000431 0.000000
0.000012 0.000440 0.000000
0.000012 0.000451 0.000000
0.000012 0.000460 0.000000
0.000011 0.000471 0.000000
0.000013 0.000479 0.000000
0.000010 0.000492 0.000000
0.000013 0.000498 0.000000
0.000091 0.000548 0.000000
0.000096 0.000564 0.000000
0.000094 0.000577 0.000000
0.000096 0.000584 0.000000
0.000095 0.000606 0.000000
0.000094 0.000614 0.000000
0.000093 0.000630 0.000000
0.000090 0.000638 0.000000
0.000089 0.000645 0.000000
0.000086 0.000653 0.000000
0.000020 0.000300 0.000000
0.000020 0.000310 0.000000
0.000020 0.000320 0.000000
0.000020 0.000330 0.000000
0.000021 0.000340 0.000000
0.000020 0.000350 0.000000
0.000021 0.000360 0.000000
0.000020 0.000371 0.000000
0.000021 0.000380 0.000000
0.000021 0.000390 0.000000
0.000021 0.000400 0.000000
0.000021 0.000411 0.000000
0.000021 0.000420 0.000000
0.000021 0.000431 0.000000
0.000021 0.000440 0.000000
0.000022 0.000451 0.000000
0.000022 0.000460 0.000000
0.000022 0.000471 0.000000
0.000021 0.000481 0.000000
0.000024 0.000494 0.000000
0.000020 0.000497 0.000000
0.000102 0.000544 0.000000
0.000105 0.000555 0.000000
0.000102 0.000562 0.000000
0.000106 0.000578 0.000000
0.000103 0.000590 0.000000
0.000100 0.000601 0.000000
0.000100 0.000620 0.000000
0.000095 0.000635 0.000000
0.000098 0.000648 0.000000
0.000099 0.000658 0.000000
0.000030 0.000300 0.000000
0.000030 0.000310 0.000000
0.000030 0.000321 0.000000
0.000030 0.000330 0.000000
0.000031 0.000340 0.000000
0.000029 0.000351 0.000000
0.000032 0.000360 0.000000
0.000030 0.000370 0.000000
0.000032 0.000380 0.000000
0.000030 0.000391 0.000000
0.000032 0.000400 0.000000
0.000030 0.000410 0.000000
0.000032 0.000420 0.000000
0.000031 0.000431 0.000000
0.000033 0.000440 0.000000
0.000030 0.000451 0.000000
0.000033 0.000460 0.000000
0.000030 0.000471 0.000000
0.000033 0.000479 0.000000
0.000031 0.000488 0.000000
0.000032 0.000498 0.000000
0.000062 0.000500 0.000000
0.000113 0.000562 0.000000
0.000106 0.000573 0.000000
0.000109 0.000592 0.000000
0.000108 0.000603 0.000000
0.000109 0.000611 0.000000
0.000107 0.000623 0.000000
0.000107 0.000632 0.000000
0.000108 0.000643 0.000000
0.000107 0.000657 0.000000
0.000040 0.000300 0.000000
0.000040 0.000310 0.000000
0.000040 0.000320 0.000000
0.000040 0.000330 0.000000
0.000040 0.000341 0.000000
0.000040 0.000350 0.000000
0.000041 0.000360 0.000000
0.000039 0.000371 0.000000
0.000043 0.000380 0.000000
0.000039 0.000390 0.000000
0.000042 0.000399 0.000000
0.000040 0.000411 0.000000
0.000043 0.000421 0.000000
0.000039 0.000430 0.000000
0.000043 0.000439 0.000000
0.000040 0.000451 0.000000
0.000043 0.000460 0.000000
0.000041 0.000471 0.000000
0.000044 0.000480 0.000000
0.000043 0.000497 0.000000
0.000040 0.000498 0.000000
0.000086 0.000506 0.000000
0.000120 0.000560 0.000000
0.000120 0.000574 0.000000
0.000116 0.000584 0.000000
0.000119 0.000596 0.000000
0.000116 0.000616 0.000000
0.000116 0.000629 0.000000
0.000116 0.000638 0.000000
0.000115 0.000648 0.000000
0.000116 0.000657 0.000000
0.000050 0.000300 0.000000
0.000050 0.000310 0.000000
0.000050 0.000320 0.000000
0.000051 0.000331 0.000000
0.000050 0.000339 0.000000
0.000050 0.000350 0.000000
0.000051 0.000361 0.000000
0.000051 0.000370 0.000000
0.000051 0.000380 0.000000
0.000050 0.000390 0.000000
0.000053 0.000401 0.000000
0.000049 0.000410 0.000000
0.000053 0.000419 0.000000
0.000050 0.000430 0.000000
0.000054 0.000441 0.000000
0.000049 0.000450 0.000000
0.000054 0.000459 0.000000
0.000050 0.000471 0.000000
0.000054 0.000479 0.000000
0.000050 0.000488 0.000000
0.000050 0.000498 0.000000
0.000092 0.000540 0.000000
0.000102 0.000531 0.000000
0.000123 0.000573 0.000000
0.000125 0.000591 0.000000
0.000123 0.000605 0.000000
0.000126 0.000612 0.000000
0.000123 0.000621 0.000000
0.000127 0.000632 0.000000
0.000125 0.000646 0.000000
0.000126 0.000657 0.000000
0.000060 0.000300 0.000000
0.000060 0.000310 0.000000
0.000060 0.000320 0.000000
0.000060 0.000330 0.000000
0.000060 0.000340 0.000000
0.000061 0.000351 0.000000
0.000060 0.000359 0.000000
0.000061 0.000370 0.000000
0.000060 0.000381 0.000000
0.000061 0.000391 0.000000
0.000061 0.000399 0.000000
0.000060 0.000410 0.000000
0.000063 0.000421 0.000000
0.000059 0.000431 0.000000
0.000064 0.000438 0.000000
0.000060 0.000451 0.000000
0.000064 0.000460 0.000000
0.000060 0.000470 0.000000
0.000063 0.000480 0.000000
0.000071 0.000489 0.000000
0.000058 0.000496 0.000000
0.000093 0.000532 0.000000
0.000118 0.000550 0.000000
0.000134 0.000578 0.000000
0.000130 0.000586 0.000000
0.000133 0.000598 0.000000
0.000134 0.000615 0.000000
0.000135 0.000628 0.000000
0.000132 0.000638 0.000000
0.000135 0.000646 0.000000
0.000135 0.000656 0.000000
0.000070 0.000300 0.000000
0.000070 0.000310 0.000000
0.000070 0.000320 0.000000
0.000070 0.000330 0.000000
0.000071 0.000340 0.000000
0.000070 0.000349 0.000000
0.000071 0.000360 0.000000
0.000071 0.000372 0.000000
0.000070 0.000379 0.000000
0.000071 0.000389 0.000000
0.000071 0.000401 0.000000
0.000072 0.000411 0.000000
0.000071 0.000419 0.000000
0.000071 0.000430 0.000000
0.000073 0.000442 0.000000
0.000069 0.000451 0.000000
0.000075 0.000458 0.000000
0.000070 0.000470 0.000000
0.000073 0.000479 0.000000
0.000068 0.000496 0.000000
0.000075 0.000496 0.000000
0.000091 0.000509 0.000000
0.000110 0.000546 0.000000
0.000128 0.000563 0.000000
0.000142 0.000588 0.000000
0.000139 0.000603 0.000000
0.000142 0.000610 0.000000
0.000142 0.000622 0.000000
0.000144 0.000632 0.000000
0.000144 0.000645 0.000000
0.000145 0.000656 0.000000
0.000080 0.000300 0.000000
0.000080 0.000310 0.000000
0.000080 0.000320 0.000000
0.000080 0.000330 0.000000
0.000080 0.000340 0.000000
0.000080 0.000350 0.000000
0.000081 0.000360 0.000000
0.000080 0.000369 0.000000
0.000081 0.000380 0.000000
0.000080 0.000392 0.000000
0.000081 0.000400 0.000000
0.000081 0.000409 0.000000
0.000081 0.000420 0.000000
0.000082 0.000431 0.000000
0.000081 0.000439 0.000000
0.000082 0.000449 0.000000
0.000083 0.000462 0.000000
0.000079 0.000472 0.000000
0.000087 0.000476 0.000000
0.000084 0.000487 0.000000
0.000084 0.000497 0.000000
0.000096 0.000523 0.000000
0.000099 0.000517 0.000000
0.000138 0.000570 0.000000
0.000144 0.000582 0.000000
0.000147 0.000597 0.000000
0.000151 0.000612 0.000000
0.000151 0.000624 0.000000
0.000152 0.000635 0.000000
0.000153 0.000645 0.000000
0.000155 0.000655 0.000000
0.000090 0.000300 0.000000
0.000090 0.000310 0.000000
0.000091 0.000321 0.000000
0.000090 0.000330 0.000000
0.000091 0.000340 0.000000
0.000090 0.000350 0.000000
0.000091 0.000360 0.000000
0.000090 0.000371 0.000000
0.000091 0.000381 0.000000
0.000090 0.000388 0.000000
0.000092 0.000399 0.000000
0.000090 0.000412 0.000000
0.000092 0.000421 0.000000
0.000091 0.000428 0.000000
0.000092 0.000440 0.000000
0.000093 0.000451 0.000000
0.000090 0.000459 0.000000
0.000094 0.000468 0.000000
0.000092 0.000483 0.000000
0.000094 0.000493 0.000000
0.000098 0.000501 0.000000
0.000103 0.000510 0.000000
0.000110 0.000534 0.000000
0.000121 0.000541 0.000000
0.000134 0.000555 0.000000
0.000153 0.000594 0.000000
0.000158 0.000608 0.000000
0.000159 0.000620 0.000000
0.000162 0.000632 0.000000
0.000164 0.000643 0.000000
0.000165 0.000653 0.000000
0.000100 0.000300 0.000000
0.000100 0.000310 0.000000
0.000100 0.000320 0.000000
0.000100 0.000330 0.000000
0.000101 0.000341 0.000000
0.000100 0.000350 0.000000
0.000101 0.000360 0.000000
0.000100 0.000370 0.000000
0.000101 0.000379 0.000000
0.000100 0.000391 0.000000
0.000102 0.000402 0.000000
0.000100 0.000409 0.000000
0.000102 0.000419 0.000000
0.000100 0.000432 0.000000
0.000103 0.000441 0.000000
0.000101 0.000448 0.000000
0.000102 0.000461 0.000000
0.000104 0.000472 0.000000
0.000100 0.000479 0.000000
0.000107 0.000487 0.000000
0.000107 0.000496 0.000000
0.000111 0.000515 0.000000
0.000112 0.000525 0.000000
0.000118 0.000530 0.000000
0.000154 0.000582 0.000000
0.000161 0.000595 0.000000
0.000164 0.000605 0.000000
0.000168 0.000620 0.000000
0.000170 0.000629 0.000000
0.000172 0.000641 0.000000
0.000175 0.000652 0.000000
0.000110 0.000300 0.000000
0.000110 0.000310 0.000000
0.000110 0.000320 0.000000
0.000111 0.000331 0.000000
0.000110 0.000339 0.000000
0.000111 0.000350 0.000000
0.000111 0.000361 0.000000
0.000110 0.000370 0.000000
0.000111 0.000380 0.000000
0.000110 0.000390 0.000000
0.000111 0.000398 0.000000
0.000111 0.000410 0.000000
0.000112 0.000423 0.000000
0.000110 0.000429 0.000000
0.000113 0.000438 0.000000
0.000111 0.000452 0.000000
0.000114 0.000461 0.000000
0.000111 0.000468 0.000000
0.000114 0.000480 0.000000
0.000114 0.000494 0.000000
0.000115 0.000504 0.000000
0.000119 0.000512 0.000000
0.000124 0.000520 0.000000
0.000128 0.000547 0.000000
0.000142 0.000564 0.000000
0.000150 0.000570 0.000000
[...]
POINT_DATA 6231
SCALARS density float 1
LOOKUP_TABLE default
4389.114602
4421.674890
4422.324455
4423.307260
4419.646342
4420.793087
4429.050872
4425.411408
4420.531553
4425.668760
4428.450656
4429.274070
4424.605253
4428.506233
4426.794419
4432.775517
4429.850649
4447.158463
4427.705424
4430.120385
4411.816397
4626.903797
4439.410423
4584.780069
4564.091872
4440.161154
4482.178481
4530.948067
4472.674691
4545.005416
4397.014263
4400.231434
4420.297091
4421.745409
4419.379607
4416.719891
4427.302418
4421.486588
4419.376074
4424.218547
4430.370521
4421.707491
4423.038930
4426.014835
4437.604166
4418.908108
4438.365864
4407.857660
4421.957544
4410.851264
4478.343925
4405.778202
4428.165188
4461.053463
4405.661329
4492.070640
4416.524562
4418.626168
4400.322876
4404.166129
4416.042281
4504.795728
4412.720787
4413.002524
4415.851731
4418.136180
4426.668064
4429.084275
4407.370452
4433.670151
4425.152478
4422.323341
4419.076381
4439.495121
4417.439772
4430.715756
4412.908001
4454.875496
4396.484361
4491.760123
4341.070666
4437.270960
4397.005743
4456.396909
4470.081346
4464.143294
4485.449074
4413.260780
4414.021527
4465.015157
4444.014828
4474.764873
4412.978527
4405.610347
4415.666308
4432.640413
4423.785503
4413.488125
4415.552997
4437.711639
4440.019289
4395.122033
4440.715507
4417.616500
4436.899509
4410.741702
4447.619521
4411.262417
4444.103301
4385.163816
4476.140453
4334.118674
4625.896556
4358.521514
4391.021405
4439.311126
4458.673974
4458.368627
4475.899952
4449.121496
4430.258683
4425.077159
4457.047485
4434.852529
4406.665407
4432.432952
4421.400132
4409.372305
4436.393624
4430.092081
4413.498146
4415.824531
4445.050557
4450.051889
4395.311121
4442.006999
4418.943964
4446.527727
4401.289537
4452.929012
4416.633231
4473.804448
4341.447850
4420.591869
4376.366960
4667.109640
4427.346225
4477.907011
4405.330039
4453.765333
4440.804930
4448.516431
4451.584509
4377.262576
4442.954388
4423.326399
4429.114353
4404.030881
4438.828585
4429.679993
4410.707354
4428.986235
4434.023871
4424.686965
4411.420694
4452.528206
4452.364089
4398.530855
4444.255073
4415.145554
4454.006935
4371.913659
4479.065230
4393.349467
4554.015753
4386.656585
4448.798389
4527.260015
4467.018410
4481.054934
4405.750186
4476.989506
4455.456219
4407.650610
4454.207222
4434.651509
4418.041720
4418.919627
4428.824081
4438.356178
4399.785101
4442.228397
4441.273326
4411.031196
4416.636170
4439.392117
4437.636995
4403.999496
4451.364244
4449.856842
4396.867438
4453.479200
4419.048890
4466.256145
4359.619044
4580.268192
4423.463061
4422.481743
4485.175906
4431.772993
4461.883961
4427.317858
4432.828701
4452.367229
4435.249082
4409.714412
4435.360090
4418.723542
4435.245385
4429.422390
4408.883419
4434.095647
4440.172180
4395.166176
4445.306093
4445.973774
4412.837505
4405.373714
4442.236545
4445.330832
4397.821137
4448.247475
4436.617869
4384.493327
4465.061692
4401.436359
4389.357722
4360.248962
4375.601314
4451.174646
4473.471034
4464.260469
4471.964407
4467.059954
4423.790133
4446.374794
4423.169824
4441.695228
4433.040354
4423.669553
4414.190604
4433.664413
4435.360206
4408.354360
4441.797783
4441.858676
4395.663777
4435.993324
4448.858402
4422.158117
4399.528483
4442.874746
4450.819243
4393.039726
4451.629749
4423.567553
4416.514994
4483.036419
4359.532393
4404.484722
4487.944542
4450.910954
4470.298808
4442.856726
4439.026543
4449.762696
4426.353831
4436.541406
4418.253930
4422.682311
4418.238434
4441.823344
4433.078918
4411.884585
4428.806934
4435.403027
4406.416594
4452.846002
4443.811188
4398.001708
4415.695768
4449.162006
4434.536772
4393.741992
4448.382307
4447.498670
4413.320926
4437.370705
4474.139678
4479.942420
4495.590391
4436.933577
4448.456827
4438.411747
4476.480625
4454.455705
4456.419322
4430.516804
4443.004078
4424.653150
4422.840327
4435.733791
4432.584493
4404.565909
4444.562697
4435.185276
4415.766295
4430.439334
4430.028613
4404.185353
4457.811751
4452.611005
4396.770507
4401.359068
4450.769793
4445.538382
4375.310096
4454.581340
4444.926418
4409.763512
4434.767849
4451.239816
4467.193273
4478.159839
4415.111493
4463.002948
4448.190821
4470.515597
4436.510497
4427.888507
4420.070700
4428.624002
4428.423064
4413.345584
4445.431009
4441.808646
4403.076418
4442.517716
4428.742893
4420.010555
4439.206525
4426.844802
4398.465212
4452.671313
4461.612352
4391.404008
4396.066416
4458.165828
4450.250068
4394.747421
4468.925262
4418.399287
4463.943246
4453.865840
4462.993633
4436.369231
4458.560625
4422.024073
4447.477906
4431.800466
4444.857198
4407.140012
4427.628242
4433.448633
4437.368749
4431.082775
4403.742627
4452.007263
4441.412016
4408.763422
4442.066635
4424.045776
4419.934108
4449.974700
4435.628014
4397.899241
4451.912192
4460.651468
4392.854332
4393.932471
4443.215865
4453.234270
4405.201350
4464.226069
4442.118485
4464.864422
4451.700365
4438.248092
4442.690246
4470.630998
4463.119049
4458.465972
4413.477485
4437.337438
4427.153797
4420.715244
4422.579583
4442.654591
4438.935874
4400.994124
4454.656497
4428.310724
4422.169151
4444.990923
4418.013668
4404.246392
4450.437227
4450.682233
4393.138334
4446.929080
4465.077289
4400.211065
4439.254503
4449.985943
4439.696578
4459.307507
4444.150236
4454.317527
4454.407616
4444.622336
4485.020321
4424.492569
4440.818006
4409.332048
4428.506073
4419.576121
4440.571015
4438.693261
4420.515497
4413.228928
4448.674383
4445.622703
4403.889864
4452.345388
4414.239531
4435.033521
4447.187389
4421.057870
4389.207163
4452.708262
4457.106488
4382.324770
4452.324886
4433.249860
4413.555220
4450.801513
4448.719732
4449.708735
4446.159408
4429.873272
4471.688805
4378.590821
4423.326874
4495.899980
4423.976639
4423.121033
4438.756339
4437.441629
4408.265374
4437.165352
4443.177989
4420.985164
4409.713806
4452.093841
4437.601241
4409.325609
4452.563769
4408.554471
4438.891783
4443.489877
4429.586847
4387.896954
4450.002759
4465.833380
4388.410565
4452.094645
4431.350487
4449.548707
4458.801321
4436.919594
4453.434082
4453.773622
4395.069080
4444.446954
4400.688897
4425.495069
4436.207160
4433.802522
4410.858222
4444.077122
4446.572568
4407.886717
4428.198262
4447.172690
4428.399171
4412.706055
4450.917825
4421.199053
4427.056890
4447.735917
4414.719881
4429.880852
4444.011979
4436.654226
4392.277594
4456.222316
4458.278656
4411.159815
4457.129048
4436.100780
4457.306106
4428.632482
4432.876946
4459.073950
4572.041489
4356.143322
4431.588762
4428.177772
4424.197456
4438.912254
4443.830260
4401.984082
4448.719863
4450.936912
4405.917122
4418.158982
4449.245465
4435.635753
4412.693690
4450.165438
4412.460982
4439.518874
4443.037689
4427.361879
4430.885744
4438.645501
4456.095657
4393.934455
4430.620074
4435.405713
4453.455525
4450.632959
4448.024498
4458.612682
4445.866372
4456.590273
4349.327737
4435.561941
4428.812608
4438.267556
4431.596973
4412.774370
4439.957312
4449.573439
4398.929380
4450.219085
4457.435896
4402.624903
4416.582538
4451.582553
4426.972292
4410.715780
4447.734731
4416.896624
4444.544526
4420.279515
4434.355142
4427.458468
4452.676921
4468.957086
4415.843501
4441.759676
4429.422253
4449.188887
4426.972617
4432.913598
4425.408360
4396.157109
4406.543484
4432.569409
4431.273882
4419.815399
4445.287761
4441.026666
4403.910809
4441.818298
4450.154320
4396.619554
4449.401841
4458.989471
4399.868869
4424.776934
4445.979624
4424.812982
4402.701748
4451.217319
4420.272323
4452.530581
4410.178476
4422.537329
4426.787595
4442.415833
4461.949190
4437.931223
4465.047115
4435.443197
4470.123222
4397.600749
4509.117752
4387.854453
4430.843902
4434.545957
4439.571963
4432.136154
4412.054896
4448.321029
4446.987437
4399.947466
4442.300069
4451.662646
4397.780962
4449.512579
4456.578027
4392.531572
4434.666394
4431.572396
4425.233086
4417.723407
4440.521274
4412.671064
4470.800478
4430.139457
4438.957380
4440.107131
4423.249524
4455.953249
4441.290232
4471.248422
4418.092799
4451.178439
4384.130743
4441.175183
4430.051547
4425.033133
4426.696242
4443.529696
4436.999882
4406.232663
4449.132997
4449.345402
4396.836353
4444.507423
4454.909699
4401.741703
4454.427576
4447.868697
4398.825842
4452.596027
4414.941961
4435.416627
4431.927223
4436.258364
4392.415081
4455.925592
4432.468464
4457.329289
4462.147542
4433.072192
4426.505219
4464.593240
4449.979022
4572.143734
4432.438528
4422.793588
4443.128686
4441.189101
4423.526280
4420.465669
4447.209484
4441.973038
4402.481086
4448.428011
4450.852816
4391.675871
4444.393319
4460.677377
4398.214633
4452.908184
4421.850030
4406.140746
4449.782435
4417.371680
4443.808534
4445.258867
4434.324741
4424.735320
4456.651858
4404.946687
4482.294480
4457.657262
4475.513772
4439.764709
4467.912289
4431.646331
4437.314818
4438.416303
4413.542890
4440.089428
4445.838231
4423.032465
4416.230387
4451.344720
4444.366999
4400.282048
4449.879139
4453.597391
4386.064528
4443.661954
4464.069090
4396.463932
4461.469720
4414.035828
4411.204423
4442.116209
4438.630822
4423.572030
4464.881934
4452.009971
4445.136258
4461.444983
4410.689712
4495.902430
4416.757739
4473.119725
4434.041236
4431.904356
4421.000878
4444.861786
4447.587298
4411.185085
4437.145523
4446.840345
4425.496737
4415.116490
4452.023928
4442.479240
4399.657299
4452.138327
4456.002749
4384.016951
4451.948664
4460.250076
4391.232206
4465.586368
4424.054449
4432.662444
4468.155393
4421.828265
4431.230860
4453.671975
4458.022841
4460.530220
4456.873347
4439.958184
4470.354749
4432.633797
4437.013726
4440.780098
4433.665119
4414.112022
4448.753677
4452.525121
4411.136272
4430.415668
4448.710152
4432.875847
4415.583722
4452.524420
4443.368946
4399.663222
4455.892445
4463.391840
4394.613866
4470.687245
4446.507922
4390.062658
4465.882077
4430.383981
4419.748541
4467.136403
4426.958776
4462.748361
4435.360716
4457.138596
4456.733548
4460.946411
4444.111536
4434.293330
4423.155555
4432.930320
4442.371210
4440.556123
4409.433094
4452.940998
4456.470209
4407.880514
4426.648556
4450.205568
4438.836324
4416.148041
4451.549620
4449.271715
4392.565950
4456.534028
4468.302770
4393.427706
4462.944126
4415.792322
4445.917857
4458.766103
4449.782295
4410.718330
4472.555361
4427.459045
4483.281349
4438.471471
4461.112439
4435.704898
4425.476315
4441.618613
4446.036691
4421.657357
4427.244552
4445.164557
4446.349138
4407.859468
4454.669864
4460.526869
4406.991756
4427.194012
4453.879415
4441.037934
4415.524043
4450.981886
4456.967471
4387.326367
4462.708993
4468.920108
4384.355420
4466.567263
4416.878852
4459.896630
4452.426024
4458.155255
4448.920790
4465.905305
4442.899057
4459.864677
4432.269304
4438.967685
4440.699930
4414.952732
4442.062189
4447.820688
4423.858035
4423.062881
4447.252012
4453.325178
4402.545587
4456.265168
4463.953595
4404.383956
4432.329844
4452.735270
4444.354241
4410.470580
4447.533779
4463.280413
4398.803992
4448.563415
4427.709687
4439.142392
4454.470169
4431.308525
4460.786910
4451.647788
4454.052141
4448.206906
4455.080091
4439.155478
4435.639894
4420.784599
4445.855745
4449.616577
4412.963862
4438.826551
4448.694227
4429.764757
4419.404636
4449.729597
4458.943768
4396.608548
4458.325206
4466.833815
4401.666962
4435.154755
4449.064498
4449.217334
4403.899668
4448.798685
4470.204535
4413.860923
4455.040701
4429.457756
4461.131114
4446.492710
4438.345663
4456.870807
4449.433321
4451.066765
4436.634790
4433.983779
4440.478182
4441.951889
4412.935047
4451.375110
4454.361661
4410.056488
4433.065475
4448.599663
4440.470634
4412.768692
4450.752877
4463.955093
4393.276939
4460.787990
4464.374342
4396.151511
4444.187514
4445.680861
4446.407747
4403.832262
4423.951214
4433.002435
4445.620099
4453.954864
4430.579700
4466.847028
4439.858721
4455.401150
4450.939573
4442.640302
4435.262276
4429.921560
4427.538485
4442.838768
4448.842011
4407.949540
4455.182370
4456.704359
4408.268835
4429.491534
4448.341520
4450.584469
4402.790916
4452.067211
4464.185744
4400.561652
4455.675927
4443.264591
4403.999275
4441.377648
4455.116415
4444.531109
4435.444807
4442.513740
4434.028859
4461.350736
4445.319394
4448.933518
4451.683640
4448.206162
4435.296069
4427.435750
4438.370762
4443.051536
4432.587836
4419.732904
4447.118210
4453.943790
4403.279095
4454.839018
4456.930118
4408.623784
4426.756522
4447.422137
4459.753431
4391.225697
4451.227910
4468.866000
4405.255544
4445.288091
4429.178158
4414.796355
4416.746449
4447.604746
4432.320664
4453.672804
4446.719591
4439.405489
4452.860776
4448.843717
4447.992643
4432.082313
4439.659148
4441.732183
4421.335644
4435.049919
4444.776189
4438.897604
4413.802474
4450.595882
4458.437797
4399.496516
4451.407963
4454.247244
4412.256170
4421.119082
4449.534401
4465.322127
4379.081108
4452.766854
4462.879231
4405.504263
4451.618447
4451.197371
4439.435835
4440.913563
4447.027790
4432.004251
4459.812953
4440.162880
4452.150913
4448.549079
4443.735805
4438.701041
4420.212304
4444.880806
4446.311500
4420.314617
4429.703696
4445.750434
4446.584651
4407.967126
4453.593961
4460.734267
4399.018334
4443.264528
4449.276518
4422.692847
4414.189531
4451.524972
4463.822693
4389.589035
4453.607757
4447.081254
4400.610180
4436.463346
4446.659587
4438.915677
4448.950982
4449.650395
4445.859897
4450.883903
4445.323490
4437.983394
4425.879137
4440.838144
4445.933466
4414.078991
4445.430997
4447.917768
4421.109665
4424.881045
4446.549201
4454.249705
4402.192021
4456.710482
4459.967305
4402.804382
4433.731166
4442.917332
4442.837726
4401.454867
4448.241413
4461.049619
4404.520411
4439.138608
4454.730077
4425.518114
4451.197434
4439.591983
4449.514341
4444.214988
4449.642898
4446.650629
4433.956287
4439.194013
4441.144335
4417.984136
4443.926756
4449.574504
4409.890268
4442.411778
4448.029255
4424.918936
4418.560048
4446.421344
4456.828335
4395.565202
4454.639289
4458.932190
4401.062718
4431.038292
4446.264203
4453.455138
4394.812316
4450.529935
4448.627919
4413.319341
4439.176482
4448.068543
4438.785813
4445.004828
4447.376231
4447.285958
4446.550663
4442.212975
4436.797235
4422.938504
4441.187115
4446.189579
4411.410529
4449.111378
4451.675809
4409.018038
4434.115136
4447.615664
4434.941703
4410.999600
4448.664164
4455.734862
4395.503293
4447.977530
4450.824547
4400.676812
4430.671404
4447.362182
4448.060059
4407.787156
4441.936283
4442.924790
4438.085471
4441.779293
4444.855565
4447.770534
4447.503656
4445.213267
4436.655083
4424.611440
4443.138772
4441.798327
4416.859254
4441.429789
4448.932952
4406.710768
4451.784325
4452.772864
4408.834057
4426.027351
4447.070130
4445.423432
4404.504978
4449.135433
4452.698988
4407.645148
4431.723257
4444.155340
4423.417553
4426.906281
4445.078093
4440.893232
4427.717569
4436.224399
4440.224508
4452.109586
4442.593499
4450.186410
4443.436887
4432.984042
4439.928864
4441.029279
4418.521353
4442.378017
4445.618916
4412.365115
4443.740237
4449.260855
4403.452263
4449.333184
4451.496004
4411.283837
4421.093416
4446.454589
4453.269679
4400.572076
4444.122244
4452.983175
4414.104712
4421.967593
4448.472127
4432.234777
4428.935938
4442.850249
4440.510886
4441.927759
4444.782252
4445.749186
4447.707294
4444.817040
4439.267493
4435.432610
4420.579990
4444.336575
4445.062997
4414.542276
4442.053586
4445.232591
4409.038002
4447.357254
4448.778611
4402.953193
4440.602983
4449.403166
4415.204785
4415.892619
4447.424651
4448.381693
4400.207591
4431.640442
4445.353114
4422.310519
4425.406929
4447.624208
4435.647137
4436.988162
4440.809121
4440.947999
4447.278911
4444.660597
4445.769754
4436.036860
4431.918297
4442.530107
4441.140189
4415.396470
4446.470728
4446.162277
4412.994689
4439.934436
4444.589128
4405.408325
4451.507199
4449.516109
4406.648709
4427.360408
4447.399604
4429.641815
4413.352871
4447.894708
4448.713691
4412.241959
4419.527567
4446.899927
4436.786940
4435.565107
4448.024556
4437.426223
4447.320772
4446.537426
4446.982101
4441.397616
4438.002942
4433.499585
4431.788009
4423.250457
4443.852495
4445.373478
4410.804619
4446.939644
4444.322314
4413.229245
4439.150515
4443.355094
4403.251557
4451.386460
4449.970982
4409.278827
4418.462402
4449.709522
4439.354781
4414.266188
4440.899809
4444.419031
4424.938875
4422.233959
4446.350712
4440.757929
4438.887538
4447.691277
4441.997795
4448.184695
4443.933405
4434.400542
4427.899923
4435.420723
4441.846064
4434.166964
4417.480653
4446.724787
4446.087559
4409.213742
4443.412224
4442.163727
4412.993584
4441.268181
4443.066988
4401.011755
4442.936755
4446.523777
4414.118104
4418.174012
4449.407220
4438.478440
4419.677590
4428.598577
4440.189088
4437.044675
4431.110548
4444.915714
4444.607105
4441.833232
4447.419545
4441.368633
4428.514204
4440.759240
4437.561614
4423.484150
4428.785664
4443.243171
4437.715590
4412.511656
4448.347891
4443.758030
4410.854790
4438.614359
4439.242597
4410.588353
4446.373179
4443.485268
4406.804488
4430.586225
4443.004706
4424.739014
4418.700719
4447.610678
4438.511810
4429.990298
4428.262364
4441.975801
4443.482855
4438.258399
4447.203992
4444.734827
4442.348889
4438.816625
4437.377370
4418.038345
4442.047330
4443.212443
4421.985324
4423.449820
4444.412070
4442.076972
4409.158347
4446.445900
4440.117316
4415.255692
4436.499439
4439.131946
4408.393733
4447.284405
4445.591650
4413.169592
4419.963308
4446.057952
4436.492314
4423.743076
4444.111374
4437.128935
4438.325245
4435.271801
4442.095529
4447.706720
4441.344864
4445.174776
4434.266426
4424.936529
4439.254537
4444.490017
4412.725703
4440.640773
4443.938362
4421.683085
4418.259873
4446.086935
4444.795171
4408.130731
4442.801178
4435.083132
4417.019600
4440.371541
4440.111185
4409.549948
4444.146842
4443.369052
4419.363651
4418.614325
4447.870973
4442.559083
4432.342793
4442.332003
4437.859744
4444.655431
4441.191222
4444.271282
4438.948666
4430.591603
4438.161441
4438.136466
4416.166910
4439.513730
4447.824434
4410.987682
4437.293415
4443.603353
4423.963699
4414.281330
4446.483098
4443.440044
4411.789099
4439.274539
4432.529643
4417.146032
4443.476133
4439.925379
4413.778240
4436.947951
4441.895685
4428.364268
4424.100767
4444.739942
4442.672555
4437.081377
4444.067362
4440.158883
4447.499526
4441.716986
4436.337856
4432.902505
4421.282329
4440.004560
4443.929548
4409.803431
4442.518836
4446.629417
4411.621935
4430.585271
4442.134001
4431.005700
4409.898852
4445.198419
4440.101351
4415.423070
4437.924364
4434.429901
4416.582233
4445.472259
4438.504737
4422.048120
4429.307103
4442.994738
4438.873484
4431.118569
4443.629441
4442.320344
4440.153179
4443.537785
4439.256911
4432.350528
4428.849249
4440.943206
4437.007523
4415.715531
4440.348406
4446.955909
4407.340988
4443.956624
4446.310108
4413.154818
4423.191625
4442.354398
4437.619357
4407.946257
4443.643388
4436.183780
4418.512255
4439.176788
4437.733806
4418.976812
4446.045559
4439.406431
4428.604717
4429.072653
4442.308979
4443.636501
4436.165479
4445.619670
4441.879682
4439.960429
4434.960547
4432.044688
4432.237310
4420.699487
4442.121203
4441.470501
4409.798488
4441.228075
4446.724893
4406.263387
4444.022733
4444.293575
4415.245728
4418.546356
4443.863811
4440.449963
4410.086616
4441.426828
4434.267818
4420.490452
4441.420288
4439.544960
4424.076868
4443.246401
4440.272860
4435.274603
4434.868215
4440.433743
4446.452670
4439.343904
4441.832416
4431.307549
4426.955095
4431.845504
4439.664293
4433.714397
4415.494017
4444.242971
4443.125958
4408.064629
4441.278966
4446.173350
4406.997005
4440.751441
4442.027334
4419.227658
4416.493956
4443.823315
4441.368797
4414.553664
4441.264921
4435.300443
4422.978348
4443.000455
4440.391813
4430.294172
4440.636666
4440.871711
4440.590790
4438.688654
4440.563325
4437.414641
4426.640015
4438.297146
4436.707818
4423.490164
4426.728924
4441.149312
4437.445838
4410.905265
4444.687126
4442.997833
4408.019713
4441.630400
4445.498750
4409.332444
4435.592003
4441.320882
4424.940637
4416.105618
4442.441071
4440.802571
4419.192665
4441.887182
4437.844374
4426.356949
4443.096748
4442.128622
4434.663082
4441.480541
4440.411111
4443.799228
4439.887629
4435.637310
4435.449719
4417.326395
4439.130769
4441.300768
4423.158365
4421.700350
4443.502443
4441.485594
4408.555859
4443.870872
4442.842108
4408.917263
4441.997988
4443.921081
4413.433051
4428.659011
4441.172865