# vtk DataFile Version 2.0
mfree iwf
ASCII

DATASET UNSTRUCTURED_GRID
POINTS 6231 float
0.000000 0.000300 0.000000
0.000000 0.000310 0.000000
0.000000 0.000320 0.000000
0.000000 0.000330 0.000000
0.000000 0.000340 0.000000
0.000000 0.000350 0.000000
0.000000 0.000360 0.000000
0.000001 0.000370 0.000000
0.000001 0.000380 0.000000
0.000001 0.000390 0.000000
0.000001 0.000400 0.000000
0.000001 0.000410 0.000000
0.000001 0.000420 0.000000
0.000001 0.000430 0.000000
0.000001 0.000440 0.000000
0.000001 0.000450 0.000000
0.000002 0.000460 0.000000
0.000002 0.000470 0.000000
0.000002 0.000480 0.000000
0.000001 0.000492 0.000000
0.000006 0.000501 0.000000
0.001124 0.001155 0.000000
0.001198 0.001187 0.000000
0.001141 0.001161 0.000000
0.001211 0.001192 0.000000
0.001233 0.001196 0.000000
0.001282 0.001199 0.000000
0.001290 0.001197 0.000000
0.001302 0.001191 0.000000
0.001315 0.001188 0.000000
0.001344 0.001188 0.000000
0.000010 0.000300 0.000000
0.000010 0.000310 0.000000
0.000010 0.000320 0.000000
0.000010 0.000330 0.000000
0.000010 0.000340 0.000000
0.000010 0.000350 0.000000
0.000010 0.000360 0.000000
0.000011 0.000370 0.000000
0.000011 0.000380 0.000000
0.000011 0.000390 0.000000
0.000011 0.000400 0.000000
0.000011 0.000410 0.000000
0.000011 0.000420 0.000000
0.000011 0.000430 0.000000
0.000011 0.000440 0.000000
0.000011 0.000450 0.000000
0.000012 0.000460 0.000000
0.000011 0.000472 0.000000
0.000013 0.000478 0.000000
0.000009 0.000492 0.000000
0.000013 0.000498 0.000000
0.001252 0.001192 0.000000
0.001267 0.001192 0.000000
0.001275 0.001193 0.000000
0.001281 0.001191 0.000000
0.001297 0.001183 0.000000
0.001308 0.001181 0.000000
0.001322 0.001177 0.000000
0.001333 0.001178 0.000000
0.001338 0.001175 0.000000
0.001341 0.001184 0.000000
0.000020 0.000300 0.000000
0.000020 0.000310 0.000000
0.000020 0.000320 0.000000
0.000020 0.000330 0.000000
0.000021 0.000340 0.000000
0.000020 0.000350 0.000000
0.000021 0.000360 0.000000
0.000020 0.000370 0.000000
0.000020 0.000380 0.000000
0.000021 0.000390 0.000000
0.000020 0.000400 0.000000
0.000022 0.000410 0.000000
0.000020 0.000420 0.000000
0.000022 0.000430 0.000000
0.000020 0.000439 0.000000
0.000023 0.000451 0.000000
0.000021 0.000460 0.000000
0.000022 0.000470 0.000000
0.000021 0.000482 0.000000
0.000024 0.000494 0.000000
0.000020 0.000497 0.000000
0.001218 0.001182 0.000000
0.001247 0.001187 0.000000
0.001258 0.001189 0.000000
0.001263 0.001186 0.000000
0.001272 0.001179 0.000000
0.001287 0.001182 0.000000
0.001313 0.001174 0.000000
0.001328 0.001173 0.000000
0.001335 0.001165 0.000000
0.001342 0.001161 0.000000
0.000030 0.000300 0.000000
0.000030 0.000310 0.000000
0.000030 0.000320 0.000000
0.000031 0.000330 0.000000
0.000030 0.000339 0.000000
0.000031 0.000350 0.000000
0.000030 0.000360 0.000000
0.000030 0.000370 0.000000
0.000031 0.000380 0.000000
0.000031 0.000390 0.000000
0.000031 0.000400 0.000000
0.000031 0.000410 0.000000
0.000031 0.000419 0.000000
0.000032 0.000430 0.000000
0.000031 0.000440 0.000000
0.000031 0.000450 0.000000
0.000031 0.000459 0.000000
0.000036 0.000473 0.000000
0.000029 0.000478 0.000000
0.000032 0.000488 0.000000
0.000032 0.000497 0.000000
0.000063 0.000500 0.000000
0.001239 0.001183 0.000000
0.001255 0.001175 0.000000
0.001281 0.001172 0.000000
0.001291 0.001165 0.000000
0.001297 0.001176 0.000000
0.001301 0.001169 0.000000
0.001312 0.001166 0.000000
0.001318 0.001163 0.000000
0.001340 0.001153 0.000000
0.000040 0.000300 0.000000
0.000040 0.000310 0.000000
0.000040 0.000320 0.000000
0.000040 0.000331 0.000000
0.000040 0.000341 0.000000
0.000041 0.000349 0.000000
0.000040 0.000360 0.000000
0.000041 0.000369 0.000000
0.000040 0.000380 0.000000
0.000041 0.000390 0.000000
0.000041 0.000399 0.000000
0.000041 0.000410 0.000000
0.000041 0.000420 0.000000
0.000040 0.000430 0.000000
0.000042 0.000439 0.000000
0.000043 0.000450 0.000000
0.000042 0.000460 0.000000
0.000037 0.000469 0.000000
0.000045 0.000477 0.000000
0.000043 0.000496 0.000000
0.000040 0.000498 0.000000
0.001018 0.001017 0.000000
0.001246 0.001173 0.000000
0.001265 0.001171 0.000000
0.001269 0.001167 0.000000
0.001282 0.001173 0.000000
0.001301 0.001160 0.000000
0.001322 0.001153 0.000000
0.001319 0.001144 0.000000
0.001330 0.001156 0.000000
0.001338 0.001144 0.000000
0.000050 0.000300 0.000000
0.000050 0.000310 0.000000
0.000050 0.000320 0.000000
0.000050 0.000329 0.000000
0.000051 0.000339 0.000000
0.000050 0.000350 0.000000
0.000050 0.000360 0.000000
0.000050 0.000371 0.000000
0.000051 0.000379 0.000000
0.000050 0.000390 0.000000
0.000052 0.000400 0.000000
0.000049 0.000410 0.000000
0.000053 0.000419 0.000000
0.000051 0.000430 0.000000
0.000053 0.000440 0.000000
0.000047 0.000451 0.000000
0.000054 0.000458 0.000000
0.000052 0.000470 0.000000
0.000055 0.000483 0.000000
0.000048 0.000488 0.000000
0.000050 0.000498 0.000000
0.001237 0.001190 0.000000
0.001192 0.001179 0.000000
0.001258 0.001164 0.000000
0.001267 0.001151 0.000000
0.001286 0.001156 0.000000
0.001303 0.001152 0.000000
0.001295 0.001149 0.000000
0.001313 0.001153 0.000000
0.001327 0.001144 0.000000
0.001333 0.001134 0.000000
0.000060 0.000300 0.000000
0.000060 0.000310 0.000000
0.000060 0.000321 0.000000
0.000060 0.000332 0.000000
0.000061 0.000340 0.000000
0.000059 0.000350 0.000000
0.000062 0.000359 0.000000
0.000060 0.000369 0.000000
0.000062 0.000381 0.000000
0.000059 0.000390 0.000000
0.000063 0.000399 0.000000
0.000060 0.000410 0.000000
0.000063 0.000419 0.000000
0.000058 0.000430 0.000000
0.000065 0.000439 0.000000
0.000061 0.000449 0.000000
0.000065 0.000460 0.000000
0.000055 0.000471 0.000000
0.000064 0.000475 0.000000
0.000068 0.000485 0.000000
0.000058 0.000496 0.000000
0.001227 0.001189 0.000000
0.001236 0.001174 0.000000
0.001252 0.001155 0.000000
0.001273 0.001158 0.000000
0.001283 0.001145 0.000000
0.001283 0.001137 0.000000
0.001313 0.001135 0.000000
0.001304 0.001142 0.000000
0.001323 0.001133 0.000000
0.001330 0.001125 0.000000
0.000070 0.000300 0.000000
0.000070 0.000310 0.000000
0.000070 0.000319 0.000000
0.000070 0.000328 0.000000
0.000071 0.000340 0.000000
0.000070 0.000351 0.000000
0.000072 0.000359 0.000000
0.000067 0.000372 0.000000
0.000082 0.000376 0.000000
0.000069 0.000390 0.000000
0.000073 0.000400 0.000000
0.000068 0.000411 0.000000
0.000074 0.000421 0.000000
0.000068 0.000429 0.000000
0.000076 0.000439 0.000000
0.000066 0.000452 0.000000
0.000078 0.000458 0.000000
0.000072 0.000470 0.000000
0.000076 0.000486 0.000000
0.000068 0.000495 0.000000
0.000076 0.000496 0.000000
0.001008 0.000996 0.000000
0.001226 0.001177 0.000000
0.001247 0.001166 0.000000
0.001265 0.001135 0.000000
0.001282 0.001156 0.000000
0.001295 0.001137 0.000000
0.001305 0.001135 0.000000
0.001299 0.001125 0.000000
0.001318 0.001124 0.000000
0.001326 0.001116 0.000000
0.000080 0.000300 0.000000
0.000080 0.000310 0.000000
0.000081 0.000321 0.000000
0.000079 0.000332 0.000000
0.000082 0.000340 0.000000
0.000080 0.000350 0.000000
0.000082 0.000361 0.000000
0.000074 0.000371 0.000000
0.000075 0.000383 0.000000
0.000080 0.000391 0.000000
0.000090 0.000397 0.000000
0.000079 0.000410 0.000000
0.000086 0.000417 0.000000
0.000078 0.000430 0.000000
0.000086 0.000445 0.000000
0.000076 0.000448 0.000000
0.000084 0.000464 0.000000
0.000074 0.000470 0.000000
0.000088 0.000472 0.000000
0.000085 0.000482 0.000000
0.000084 0.000495 0.000000
0.001217 0.001188 0.000000
0.001188 0.001184 0.000000
0.001250 0.001145 0.000000
0.001261 0.001152 0.000000
0.001274 0.001143 0.000000
0.001278 0.001129 0.000000
0.001289 0.001129 0.000000
0.001308 0.001122 0.000000
0.001315 0.001115 0.000000
0.001322 0.001107 0.000000
0.000090 0.000300 0.000000
0.000090 0.000310 0.000000
0.000090 0.000319 0.000000
0.000090 0.000329 0.000000
0.000091 0.000339 0.000000
0.000089 0.000350 0.000000
0.000092 0.000362 0.000000
0.000088 0.000369 0.000000
0.000093 0.000379 0.000000
0.000088 0.000387 0.000000
0.000084 0.000404 0.000000
0.000093 0.000409 0.000000
0.000086 0.000425 0.000000
0.000096 0.000426 0.000000
0.000090 0.000435 0.000000
0.000097 0.000455 0.000000
0.000087 0.000453 0.000000
0.000098 0.000472 0.000000
0.000106 0.000480 0.000000
0.000089 0.000494 0.000000
0.000094 0.000495 0.000000
0.001027 0.001032 0.000000
0.001220 0.001171 0.000000
0.001209 0.001178 0.000000
0.001239 0.001163 0.000000
0.001255 0.001133 0.000000
0.001282 0.001119 0.000000
0.001295 0.001118 0.000000
0.001302 0.001112 0.000000
0.001311 0.001106 0.000000
0.001317 0.001098 0.000000
0.000100 0.000300 0.000000
0.000100 0.000310 0.000000
0.000100 0.000321 0.000000
0.000099 0.000331 0.000000
0.000102 0.000341 0.000000
0.000099 0.000350 0.000000
0.000102 0.000358 0.000000
0.000100 0.000370 0.000000
0.000102 0.000380 0.000000
0.000100 0.000391 0.000000
0.000101 0.000400 0.000000
0.000103 0.000407 0.000000
0.000101 0.000417 0.000000
0.000100 0.000437 0.000000
0.000108 0.000442 0.000000
0.000096 0.000445 0.000000
0.000107 0.000460 0.000000
0.000096 0.000465 0.000000
0.000094 0.000481 0.000000
0.000106 0.000491 0.000000
0.000101 0.000494 0.000000
0.001146 0.001164 0.000000
0.001156 0.001169 0.000000
0.001182 0.001181 0.000000
0.001262 0.001140 0.000000
0.001270 0.001127 0.000000
0.001272 0.001117 0.000000
0.001292 0.001109 0.000000
0.001283 0.001106 0.000000
0.001305 0.001101 0.000000
0.001312 0.001090 0.000000
0.000110 0.000300 0.000000
0.000110 0.000310 0.000000
0.000110 0.000319 0.000000
0.000110 0.000328 0.000000
0.000110 0.000338 0.000000
0.000111 0.000351 0.000000
0.000109 0.000361 0.000000
0.000112 0.000370 0.000000
0.000110 0.000379 0.000000
0.000110 0.000389 0.000000
0.000112 0.000399 0.000000
0.000111 0.000414 0.000000
0.000116 0.000423 0.000000
0.000105 0.000427 0.000000
0.000114 0.000432 0.000000
0.000107 0.000450 0.000000
0.000116 0.000462 0.000000
0.000110 0.000470 0.000000
0.000116 0.000480 0.000000
0.000111 0.000493 0.000000
0.000119 0.000492 0.000000
0.001092 0.001123 0.000000
0.001037 0.001052 0.000000
0.001214 0.001166 0.000000
0.001233 0.001153 0.000000
0.001223 0.001150 0.000000
[...]
POINT_DATA 6231
SCALARS density float 1
LOOKUP_TABLE default
4415.578679
4427.736149
4423.879555
4423.194323
4422.019618
4421.350519
4426.637979
4428.126075
4428.966180
4430.587622
4429.011529
4433.613210
4429.108201
4428.774000
4430.990170
4440.198524
4423.629576
4432.202449
4413.357388
4424.379402
4411.237244
4430.066897
4422.201349
4443.539112
4436.180348
4419.115734
4401.260349
4425.628313
4448.675565
4449.978292
4415.600902
4419.116319
4425.732723
4425.597969
4427.626361
4432.573089
4431.501925
4423.884227
4426.093739
4425.903069
4428.681932
4423.768919
4424.615344
4424.512499
4439.650300
4416.352740
4427.414362
4410.761914
4440.795035
4463.189230
4459.501962
4416.230834
4411.202239
4415.699842
4438.679920
4500.783562
4401.412865
4402.773670
4426.990715
4400.080908
4450.722741
4437.503587
4420.343950
4430.120573
4426.459113
4426.386313
4419.860759
4426.847816
4427.380179
4436.222456
4423.606600
4431.160967
4429.952987
4441.836898
4420.718531
4436.287866
4417.355862
4473.609898
4401.621332
4455.729358
4351.762258
4450.784992
4421.523980
4425.297700
4442.724305
4422.744852
4496.072018
4348.788514
4360.224272
4411.857125
4422.908844
4426.682919
4404.801221
4429.385342
4432.221764
4424.103727
4435.672482
4435.743541
4431.523495
4427.508892
4427.964564
4424.747939
4439.617945
4408.881043
4432.404495
4418.588415
4445.490106
4406.532406
4428.059126
4390.294734
4453.219681
4371.298259
4550.874980
4373.512497
4435.270008
4454.141164
4413.148722
4454.114746
4336.008651
4486.449615
4455.534959
4424.215448
4477.265041
4426.277218
4429.873320
4426.928293
4432.137261
4432.329506
4424.986192
4434.210347
4430.018189
4439.135060
4423.771505
4432.435436
4421.510001
4448.291058
4410.445749
4445.506168
4415.097966
4453.263123
4388.127897
4512.142612
4310.918534
4418.509057
4384.685246
4433.954198
4420.603472
4446.177593
4447.180869
4491.024031
4430.872297
4405.597284
4476.199289
4445.234460
4412.342333
4430.872864
4432.237352
4435.044885
4433.483315
4431.182076
4439.744699
4414.781676
4440.551250
4418.193735
4436.257476
4417.007053
4439.632431
4403.739232
4446.793921
4374.595457
4476.981880
4363.906808
4471.178977
4363.502873
4538.408976
4381.524590
4435.885391
4425.964244
4447.313254
4465.494028
4472.560115
4454.706647
4390.097617
4400.375782
4427.674072
4419.570800
4431.474073
4436.877234
4418.118426
4439.407262
4432.791209
4436.877439
4422.801102
4441.023504
4404.461494
4449.514978
4422.549764
4440.094389
4418.894334
4447.068721
4405.874816
4468.900785
4397.133944
4514.218958
4378.910850
4468.184843
4433.013819
4413.232405
4387.566791
4387.229237
4378.003980
4445.235116
4438.174856
4408.259412
4418.498477
4422.781541
4432.112469
4430.812342
4428.412002
4431.666940
4439.937952
4404.969936
4442.252592
4424.784302
4426.780042
4416.932096
4449.463891
4392.656243
4437.742985
4410.574326
4435.483422
4440.911170
4458.558109
4430.099547
4454.417034
4452.218973
4414.714195
4389.820480
4434.671987
4470.648663
4455.875416
4421.238453
4434.381995
4415.206387
4451.905179
4436.620122
4442.971016
4413.783027
4431.387904
4425.212881
4421.783941
4416.321049
4425.412642
4445.818880
4417.594935
4439.419411
4423.310687
4445.125051
4418.714974
4432.631879
4418.725240
4439.561837
4451.007812
4401.199606
4459.841012
4447.358275
4369.681476
4463.001227
4411.841638
4427.323481
4414.064134
4426.769523
4436.878737
4384.853895
4450.683763
4443.503174
4402.585594
4438.885747
4434.637529
4425.714051
4435.771707
4436.133741
4419.514204
4432.454796
4420.251641
4425.695416
4446.125151
4423.355976
4420.340247
4442.865040
4414.666274
4427.881885
4457.622870
4412.064400
4392.642421
4426.597235
4414.717546
4435.488853
4424.696461
4412.698508
4428.126193
4412.549406
4437.508173
4465.095722
4409.610332
4384.971061
4436.006668
4437.331149
4434.872057
4412.850035
4428.562954
4431.621981
4414.404446
4439.347153
4426.650286
4422.665510
4445.201977
4409.920472
4448.392219
4419.766333
4441.216826
4436.742234
4414.496608
4402.927453
4448.730098
4457.989041
4427.851096
4461.670987
4428.131764
4428.352853
4415.391822
4425.459601
4430.903600
4428.115757
4443.637859
4445.479927
4417.294193
4410.048061
4470.171307
4447.999679
4425.913207
4429.652235
4436.060671
4437.690306
4432.194215
4430.182117
4417.004357
4436.970603
4424.098650
4428.032462
4427.797093
4407.179928
4438.777195
4410.013856
4441.572075
4421.740687
4421.559952
4475.329329
4401.619941
4458.768348
4407.799026
4412.722509
4439.833342
4439.624639
4404.531158
4394.469571
4393.066382
4445.343878
4439.426848
4414.919004
4423.231027
4452.431580
4432.828896
4427.282484
4423.112580
4421.488369
4429.020916
4443.804972
4407.801988
4443.826921
4406.304534
4443.677331
4433.699720
4424.201835
4429.090066
4457.567886
4414.191088
4403.055919
4414.402040
4383.124950
4432.641398
4435.361951
4391.495659
4435.842186
4418.754633
4427.101499
4457.206418
4452.007129
4411.815114
4354.591768
4457.876211
4389.069279
4419.122344
4440.132306
4429.934302
4434.100821
4447.977987
4414.358199
4430.005627
4422.446147
4436.958575
4423.473430
4416.835074
4413.832416
4415.267092
4447.967815
4415.650879
4393.011093
4473.945402
4411.633420
4466.868674
4489.474005
4417.142949
4440.937641
4434.192890
4422.359644
4422.501076
4423.846093
4438.515464
4441.704706
4459.722327
4464.807164
4487.507294
4454.265100
4433.337054
4433.522822
4430.142291
4413.543982
4438.198130
4421.750947
4437.924781
4414.526226
4435.360857
4414.384408
4432.138254
4445.823993
4460.905412
4435.362944
4430.212194
4358.683478
4412.322938
4485.790845
4570.461422
4390.117143
4379.790091
4426.160449
4419.073958
4437.074089
4450.099686
4414.023008
4460.289241
4428.821661
4403.608075
4408.224283
4446.615951
4428.496514
4438.106134
4436.149014
4420.494010
4446.180886
4397.780708
4440.089298
4425.795495
4397.601107
4426.647753
4446.592832
4428.544762
4404.427390
4410.945031
4445.779163
4431.854161
4520.743595
4344.154239
4324.577902
4458.725740
4393.200705
4427.249283
4428.708112
4454.664503
4479.186434
4443.659699
4443.183847
4431.877517
4388.909668
4421.690589
4413.138030
4433.572414
4429.388449
4427.465289
4426.181890
4425.103478
4447.271258
4417.593714
4420.494843
4447.463818
4448.018585
4449.665904
4418.019942
4471.039184
4393.541338
4437.944459
4437.027768
4403.003284
4486.548852
4468.293789
4421.993706
4406.608546
4424.746660
4409.230212
4467.921214
4367.916033
4461.453054
4471.477607
4423.924173
4403.566758
4432.818804
4429.485610
4437.628267
4426.022247
4432.932822
4450.040867
4417.990685
4439.625972
4393.225961
4446.332635
4446.205418
4404.691870
4416.032828
4425.498251
4420.652696
4458.191117
4420.344718
4431.400821
4396.169160
4467.780429
4383.221480
4392.284065
4419.543991
4427.043227
4432.760744
4440.369594
4391.519347
4468.263335
4437.408863
4396.011957
4458.680834
4424.009849
4438.420730
4425.185290
4433.218200
4421.708640
4429.954269
4426.167216
4421.915958
4446.878102
4410.281838
4415.966109
4426.934460
4431.345273
4461.441054
4438.102279
4436.169748
4407.837748
4453.109235
4393.602507
4435.177490
4422.477131
4437.382136
4387.490546
4423.684821
4431.516273
4419.770754
4452.129216
4422.116935
4471.340696
4470.100792
4414.720397
4425.117660
4420.164132
4420.915341
4433.382091
4427.754701
4418.238378
4445.837906
4400.597838
4458.833760
4405.546777
4447.571808
4429.406097
4410.338669
4408.398733
4438.915768
4411.989041
4408.081074
4450.153504
4373.849254
4462.547822
4426.094133
4552.163330
4377.462507
4470.338713
4417.870841
4410.235432
4440.801867
4381.375169
4461.330732
4399.700527
4414.834667
4426.366835
4422.870787
4431.352673
4426.895625
4429.174781
4421.331657
4420.282204
4445.829680
4402.203085
4435.528597
4396.474630
4431.469638
4459.007558
4421.704434
4437.883980
4434.143566
4446.228089
4433.589382
4472.539376
4473.470332
4391.149766
4385.821334
4438.628043
4417.741755
4434.530963
4466.755302
4442.148905
4405.122851
4424.493270
4454.392494
4465.823794
4421.647442
4409.615491
4432.833916
4424.279049
4431.174148
4441.873540
4410.698351
4449.729149
4406.792337
4423.031239
4426.110212
4411.719195
4412.528178
4412.206402
4457.881508
4424.655922
4396.409375
4464.640731
4428.442529
4400.324086
4396.088734
4458.191041
4415.262256
4449.437564
4419.106982
4425.451930
4439.710381
4393.756460
4381.240483
4455.436353
4358.100221
4422.690277
4443.105799
4428.633052
4436.660324
4422.324148
4429.001500
4430.687123
4400.875154
4440.348818
4421.375994
4420.104326
4445.040257
4398.690573
4447.411164
4460.594980
4418.282412
4390.487723
4456.296429
4420.081021
4415.337722
4452.473436
4450.882836
4429.808347
4423.882936
4415.901746
4462.216288
4404.065003
4430.455286
4477.329383
4338.364891
4489.568040
4389.667692
4421.596956
4422.535692
4430.964284
4427.468771
4419.666724
4441.048490
4430.767102
4425.763588
4420.783851
4402.194636
4441.011977
4423.405733
4440.778270
4392.491910
4434.320781
4426.595584
4421.845984
4412.510222
4449.260237
4401.325009
4432.350657
4424.878749
4408.705856
4432.381212
4426.133316
4431.139687
4454.532985
4438.150431
4404.733784
4448.694898
4437.988060
4442.681701
4428.405625
4426.770732
4435.866295
4434.291045
4405.776897
4428.845584
4401.695369
4442.536360
4445.163690
4423.919098
4433.268444
4430.445636
4442.467321
4453.682265
4389.214900
4452.673735
4401.610022
4454.290664
4436.050014
4472.664601
4412.568074
4420.790902
4460.149675
4412.574162
4435.651431
4453.622356
4430.147187
4459.013852
4419.208971
4421.688899
4433.471133
4435.105677
4432.006809
4412.022833
4442.072958
4433.382949
4436.462917
4441.496069
4418.805518
4410.032201
4447.072703
4435.322814
4442.361120
4441.421914
4429.093164
4430.189801
4438.395101
4403.600747
4448.879051
4364.122974
4427.362002
4431.100227
4415.904735
4464.495904
4441.210404
4415.733995
4391.273076
4445.732327
4439.106411
4446.177684
4410.978754
4419.138187
4422.299166
4440.552156
4431.033416
4423.515629
4410.258087
4425.227054
4406.625315
4451.374937
4429.642053
4435.595828
4403.961829
4463.807394
4398.461289
4408.001335
4395.697554
4451.489491
4430.212280
4461.620366
4419.499026
4435.780666
4428.537221
4432.896548
4424.907676
4407.551589
4422.837305
4454.111380
4417.831607
4416.101517
4476.853758
4409.455398
4441.684981
4429.557574
4429.827174
4420.909325
4435.559588
4431.891932
4447.220438
4429.019709
4424.574695
4405.756650
4443.817893
4404.920720
4417.761202
4421.034675
4450.635461
4422.052804
4454.942555
4406.613086
4455.353625
4421.284714
4436.954455
4413.380921
4424.401795
4424.970334
4430.509785
4413.345641
4415.641525
4426.543157
4436.905812
4423.640530
4401.464573
4431.375246
4432.567035
4426.344010
4425.464457
4440.521090
4417.148545
4409.181768
4437.468193
4429.684294
4432.661360
4422.135742
4439.317650
4438.546765
4424.920913
4443.364749
4388.679362
4447.263528
4401.972918
4453.353652
4428.207884
4431.699374
4408.520635
4429.780861
4417.136617
4427.598510
4472.074875
4404.195506
4404.606601
4447.996981
4405.955773
4437.219547
4407.200461
4422.305805
4426.859837
4438.509542
4414.173207
4440.856400
4442.983699
4426.030697
4421.554618
4437.196499
4428.733701
4411.683523
4434.943878
4442.573012
4398.909893
4430.494785
4425.233254
4422.371622
4376.257540
4368.400641
4459.775868
4432.912430
4406.756808
4421.368642
4403.505062
4453.209244
4419.504840
4411.114077
4464.009496
4423.742860
4424.063242
4445.955379
4430.707938
4432.568152
4427.006501
4425.860687
4434.307898
4398.690430
4441.915601
4436.594928
4414.985014
4442.456632
4462.161864
4408.085137
4438.564327
4436.216550
4440.581521
4394.829495
4424.579592
4497.807929
4469.546524
4427.095706
4434.765443
4431.437143
4429.838859
4419.728198
4419.294020
4419.591028
4440.635623
4410.963832
4429.652582
4417.538957
4436.243418
4433.942800
4430.306500
4427.399682
4442.353022
4422.775831
4450.941025
4432.720863
4412.543232
4443.379918
4412.065203
4414.984942
4436.192080
4448.168679
4413.441331
4433.893283
4458.681449
4384.164804
4456.696617
4403.756599
4386.567981
4430.324524
4435.413465
4426.665461
4395.548121
4474.083690
4399.678555
4413.633283
4423.989445
4469.866073
4357.901203
4413.174047
4432.574210
4436.523538
4432.447477
4428.612468
4415.261933
4439.993987
4403.956052
4436.420719
4422.111130
4451.348643
4446.306857
4420.437287
4409.815070
4462.123105
4432.193408
4432.701858
4397.558405
4393.321263
4466.835433
4458.047709
4443.490937
4402.646313
4400.328021
4430.818029
4438.675841
4447.323231
4371.627311
4476.080887
4431.529469
4452.764690
4416.858743
4439.390317
4437.276466
4421.807100
4435.632083
4437.551999
4423.787613
4415.106542
4399.569074
4445.808283
4421.470721
4399.802547
4457.232428
4431.024802
4425.328861
4395.015148
4436.064418
4463.493747
4448.593792
4334.891499
4473.585135
4462.052008
4432.408873
4471.948444
4425.664808
4439.194017
4459.637172
4442.020473
4429.354618
4404.421549
4410.809993
4436.789023
4434.763504
4435.059753
4426.159388
4437.738958
4405.997097
4450.986073
4420.524023
4424.927534
4426.492836
4455.142552
4412.359461
4431.816144
4406.338224
4434.797460
4409.681949
4450.333225
4368.988010
4449.899983
4318.712768
4497.276576
4438.976951
4419.769231
4426.370222
4496.903885
4424.741420
4437.693454
4396.763033
4469.906350
4354.348655
4433.882591
4447.330910
4434.041012
4435.623470
4425.360157
4437.796461
4425.712087
4433.065096
4411.149664
4451.142752
4407.127050
4412.040777
4436.147463
4437.256369
4414.590746
4459.354140
4376.788126
4464.501104
4390.346378
4479.717578
4469.765714
4507.340270
4416.014422
4418.821218
4374.221132
4429.447386
4414.659220
4441.981784
4454.653681
4442.863293
4438.234990
4353.031090
4454.273583
4424.530267
4425.770925
4432.774815
4423.514133
4407.921632
4411.088884
4423.933770
4422.719410
4447.801680
4448.696006
4417.964177
4448.694271
4405.720382
4436.120059
4437.639124
4429.596757
4435.549058
4424.740968
4433.304886
4502.764447
4446.061948
4429.535329
4439.218951
4421.706946
4400.848573
4452.807774
4415.971845
4441.014588
4432.822156
4446.953510
4412.322689
4423.722005
4423.557907
4443.037337
4430.042889
4453.889002
4439.074062
4443.393788
4447.635302
4394.041298
4411.758328
4435.784103
4447.975254
4424.452610
4402.145510
4412.458501
4422.843862
4462.891181
4407.399113
4391.115300
4431.561008
4391.855206
4420.952730
4424.292876
4433.746210
4420.425570
4449.813705
4383.284037
4387.736490
4481.514761
4462.350367
4405.487339
4432.676549
4433.544534
4404.030303
4425.855362
4439.829372
4422.031706
4392.472586
4432.508596
4447.842164
4424.411859
4450.326259
4421.425038
4451.717629
4428.171008
4443.532101
4472.683302
4374.574152
4444.778549
4432.513916
4446.779590
4430.755822
4438.645215
4425.898421
4446.283105
4440.525513
4456.911080
4474.325802
4444.497790
4390.245968
4417.691756
4399.991473
4427.781970
4423.374244
4442.628579
4448.365436
4397.246119
4440.722754
4435.879098
4437.189721
4415.052301
4419.573024
4431.087412
4417.355281
4417.694815
4411.468809
4431.253315
4395.140744
4434.056326
4417.135170
4436.186304
4438.871361
4432.951180
4432.116512
4430.950281
4420.143741
4438.820556
4436.603652
4408.549543
4492.497209
4396.582157
4453.873927
4427.607770
4430.557987
4425.385711
4414.499465
4415.642540
4436.919600
4430.201864
4397.767430
4419.911425
4429.210701
4447.032458
4415.319814
4459.460919
4414.706291
4446.332571
4432.551091
4436.899250
4416.974511
4395.729742
4431.650227
4450.763515
4433.042698
4404.726139
4451.976207
4425.364007
4434.523434
4440.265328
4440.032148
4441.016351
4350.741687
4393.361429
4404.601044
4415.334707
4431.032882
4436.992290
4408.138263
4438.406739
4402.945632
4427.935630
4450.105113
4410.043173
4388.043412
4386.749509
4440.529355
4426.852426
4415.590251
4413.698102
4463.513887
4475.225821
4371.148140
4443.778758
4433.426877
4431.713073
4422.701643
4436.191778
4426.965651
4427.154257
4468.597846
4436.234080
4376.110511
4448.229508
4470.664646
4414.354939
4424.770044
4430.055374
4419.151179
4442.382378
4413.334839
4425.869057
4455.485958
4443.832520
4458.751929
4430.161170
4412.388512
4430.095185
4464.798868
4407.551579
4446.084648
4416.760460
4391.024838
4409.444050
4372.662655
4420.601884
4440.628828
4434.481579
4421.826920
4436.798200
4404.482864
4425.862711
4404.025362
4386.691923
4451.287087
4408.732793
4428.065397
4433.576461
4429.789378
4412.846226
4450.048431
4407.108501
4431.081047
4405.168691
4431.541161
4439.074443
4393.824094
4429.226939
4431.057334
4417.608399
4413.005813
4450.526385
4417.773589
4409.510948
4456.869694
4460.485406
4440.520494
4436.639292
4431.805719
4440.049324
4411.629567
4456.545794
4439.034585
4433.915958
4460.552805
4459.360904
4430.484354
4404.235320
4418.597435
4438.005039
4425.744832
4414.263119
4436.256613
4419.201324
4433.001159
4441.391691
4421.135278
4432.670973
4452.039136
4413.291428
4444.191891
4429.886819
4422.790839
4421.808256
4417.482154
4428.740222
4399.091047
4463.538134
4439.027282
4434.259317
4406.949726
4455.779589
4415.375965
4444.774944
4386.267273
4418.513655
4366.637626
4397.505910
4409.446983
4429.886270
4425.292498
4432.520448
4427.067725
4429.289797
4431.919789
4412.650623
4410.126978
4424.094883
4429.371673
4428.189562
4430.599979
4403.519752
4434.531243
4444.370223
4410.009403
4432.267674
4462.298756
4387.550078
4434.330014
4416.706134
4402.226647
4437.518670
4424.231548
4442.214235
4463.692018
4434.153050
4409.391635
4405.232807
4460.825923
4449.976123
4429.887123
4423.817509
4427.337276
4444.045092
4409.824230
4424.360989
4454.896586
4440.683308
4432.683870
4445.853157
4436.842046
4424.530560
4426.454703
4437.078939
4450.255724
4423.343470
4424.222056
4444.918303
4447.388598
4339.450038
4401.645347
4426.165447
4420.392391
4436.309441
4460.044004
4484.853030
4432.064231
4446.059064
4427.006905
4400.342401
4375.790605
4426.502738
4437.892012
4426.954911
4418.110206
4439.038317
4426.022099
4406.064048
4413.807679
4418.508006
4411.247341
4441.525141
4425.974488
4416.706253
4405.684693
4448.260855
4385.579500
4430.147928
4476.079829
4391.127863
4533.470441
4393.475713
4426.531933
4416.452423
4426.228131
4449.278064
4434.309436
4423.714094
4452.301954
4483.624784
4447.954824
4420.555883
4430.173587
4436.177102
4417.695730
4429.630882
4423.374838
4428.773732
4444.161156
4435.395918
4432.245027
4439.781405
4416.188775
4432.607696
4398.621341
4447.107149
4439.892467
4448.469904
4424.325193
4406.601327
4432.000377
4426.854964
4471.997875
4446.754609
4463.420661
4424.451405
4462.814344
4476.927572
4407.208567
4426.764291
4470.700227
4434.300212
4464.432345
4432.858279
4428.187770
4432.551665
4436.972682
4406.763951
4441.223504
4394.757669
4453.579671
4421.656698
4415.393590
4431.179138
4431.044407
4430.025025
4440.350399
4397.633713
4447.911157
4415.354226
4409.412095
4436.401818
4451.041461
4444.442856
4438.505283
4456.017388
4470.595644
4450.026289
4434.404831
4382.812936
4381.349305
4370.390764
4349.909917
4402.218127
4432.208682
4433.689827
4417.808001
4417.819736
4436.460280
4444.186446
4417.785937
4442.760137
4441.089290
4448.017613
4419.742808
4443.806354
4426.852806
4423.730464
4456.255812
4420.711144
4410.425909
4451.192396
4391.487830
4433.156127
4453.065508
4415.928527
4436.337918
4430.979244
4463.585370
4446.063661
4375.528746
4458.919591
4452.097765
4410.285588
4446.316851
4429.450603
4426.084584
4439.462249
4421.941199
4430.405153
4403.786424
4414.615500
4437.133327
4481.088803
4425.202960
4427.849996
4428.765890
4423.244215
4446.344907
4399.171439
4443.238738
4426.117955
4448.595336
4391.392454
4411.020347
4417.830044
4433.202299
4380.180685
4440.998689
4374.151070
4413.762993
4442.804987
4464.626376
4470.593866
4398.725158
4419.669422
4432.921638
4420.940796
4422.752453
4438.529505
4450.878353
4447.115279
4422.036384
4410.916630
4394.021565
4421.588994
4394.729144
4448.729074
4438.273876
4424.434879
4447.529559
4434.851071
4422.743045
4461.329860
4471.101607
4380.249892
4428.969922
4421.375934
4435.572661
4416.586176
4389.609205
4444.789715
4390.387024
4458.729551
4427.926102
4417.093519
4403.251178
4427.096145
4432.389862
4429.801342
4417.879533
4424.038019
4416.571957
4427.393832
4437.122324
4419.704525
4419.594189
4435.900196
4437.254001
4403.331736
4439.336621
4413.599700
4391.616512
4442.340651
4460.908001