# vtk DataFile Version 2.0
mfree iwf
ASCII

DATASET UNSTRUCTURED_GRID
POINTS 6231 float
0.000000 0.000300 0.000000
0.000000 0.000310 0.000000
0.000000 0.000320 0.000000
0.000000 0.000330 0.000000
0.000000 0.000340 0.000000
0.000000 0.000350 0.000000
0.000000 0.000360 0.000000
0.000001 0.000370 0.000000
0.000001 0.000380 0.000000
0.000001 0.000390 0.000000
0.000001 0.000400 0.000000
0.000001 0.000410 0.000000
0.000001 0.000420 0.000000
0.000001 0.000430 0.000000
0.000001 0.000440 0.000000
0.000001 0.000450 0.000000
0.000002 0.000460 0.000000
0.000002 0.000470 0.000000
0.000002 0.000480 0.000000
0.000001 0.000492 0.000000
0.000006 0.000501 0.000000
0.001149 0.001178 0.000000
0.001223 0.001211 0.000000
0.001166 0.001184 0.000000
0.001236 0.001215 0.000000
0.001258 0.001219 0.000000
0.001307 0.001222 0.000000
0.001315 0.001220 0.000000
0.001327 0.001215 0.000000
0.001339 0.001212 0.000000
0.001369 0.001212 0.000000
0.000010 0.000300 0.000000
0.000010 0.000310 0.000000
0.000010 0.000320 0.000000
0.000010 0.000330 0.000000
0.000010 0.000340 0.000000
0.000010 0.000350 0.000000
0.000010 0.000360 0.000000
0.000011 0.000370 0.000000
0.000011 0.000380 0.000000
0.000011 0.000390 0.000000
0.000011 0.000400 0.000000
0.000011 0.000410 0.000000
0.000011 0.000420 0.000000
0.000011 0.000430 0.000000
0.000011 0.000440 0.000000
0.000011 0.000450 0.000000
0.000012 0.000460 0.000000
0.000011 0.000472 0.000000
0.000013 0.000478 0.000000
0.000009 0.000492 0.000000
0.000013 0.000498 0.000000
0.001276 0.001215 0.000000
0.001292 0.001216 0.000000
0.001300 0.001217 0.000000
0.001306 0.001214 0.000000
0.001322 0.001207 0.000000
0.001333 0.001205 0.000000
0.001347 0.001201 0.000000
0.001358 0.001202 0.000000
0.001363 0.001199 0.000000
0.001366 0.001207 0.000000
0.000020 0.000300 0.000000
0.000020 0.000310 0.000000
0.000020 0.000320 0.000000
0.000020 0.000330 0.000000
0.000021 0.000340 0.000000
0.000020 0.000350 0.000000
0.000021 0.000360 0.000000
0.000020 0.000370 0.000000
0.000021 0.000380 0.000000
0.000021 0.000390 0.000000
0.000020 0.000400 0.000000
0.000022 0.000410 0.000000
0.000020 0.000420 0.000000
0.000022 0.000430 0.000000
0.000020 0.000439 0.000000
0.000023 0.000451 0.000000
0.000021 0.000460 0.000000
0.000022 0.000470 0.000000
0.000021 0.000482 0.000000
0.000024 0.000494 0.000000
0.000020 0.000497 0.000000
0.001243 0.001206 0.000000
0.001272 0.001211 0.000000
0.001283 0.001212 0.000000
0.001288 0.001210 0.000000
0.001297 0.001202 0.000000
0.001312 0.001206 0.000000
0.001338 0.001198 0.000000
0.001353 0.001197 0.000000
0.001360 0.001188 0.000000
0.001367 0.001185 0.000000
0.000030 0.000300 0.000000
0.000030 0.000310 0.000000
0.000030 0.000320 0.000000
0.000031 0.000330 0.000000
0.000030 0.000340 0.000000
0.000031 0.000350 0.000000
0.000030 0.000360 0.000000
0.000031 0.000370 0.000000
0.000031 0.000380 0.000000
0.000031 0.000390 0.000000
0.000031 0.000400 0.000000
0.000031 0.000410 0.000000
0.000031 0.000419 0.000000
0.000032 0.000430 0.000000
0.000031 0.000440 0.000000
0.000030 0.000450 0.000000
0.000031 0.000459 0.000000
0.000036 0.000473 0.000000
0.000029 0.000478 0.000000
0.000032 0.000488 0.000000
0.000032 0.000497 0.000000
0.000063 0.000500 0.000000
0.001264 0.001207 0.000000
0.001281 0.001198 0.000000
0.001306 0.001196 0.000000
0.001316 0.001188 0.000000
0.001322 0.001200 0.000000
0.001326 0.001193 0.000000
0.001337 0.001190 0.000000
0.001343 0.001187 0.000000
0.001365 0.001177 0.000000
0.000040 0.000300 0.000000
0.000040 0.000310 0.000000
0.000040 0.000320 0.000000
0.000040 0.000330 0.000000
0.000040 0.000341 0.000000
0.000041 0.000350 0.000000
0.000040 0.000360 0.000000
0.000041 0.000369 0.000000
0.000040 0.000380 0.000000
0.000041 0.000390 0.000000
0.000041 0.000399 0.000000
0.000041 0.000410 0.000000
0.000042 0.000420 0.000000
0.000040 0.000430 0.000000
0.000042 0.000439 0.000000
0.000043 0.000450 0.000000
0.000042 0.000460 0.000000
0.000037 0.000469 0.000000
0.000045 0.000477 0.000000
0.000043 0.000496 0.000000
0.000040 0.000498 0.000000
0.001043 0.001039 0.000000
0.001271 0.001197 0.000000
0.001290 0.001195 0.000000
0.001294 0.001190 0.000000
0.001307 0.001197 0.000000
0.001326 0.001183 0.000000
0.001347 0.001177 0.000000
0.001344 0.001168 0.000000
0.001355 0.001180 0.000000
0.001363 0.001168 0.000000
0.000050 0.000300 0.000000
0.000050 0.000310 0.000000
0.000050 0.000320 0.000000
0.000049 0.000330 0.000000
0.000051 0.000339 0.000000
0.000050 0.000350 0.000000
0.000051 0.000360 0.000000
0.000049 0.000371 0.000000
0.000052 0.000379 0.000000
0.000050 0.000390 0.000000
0.000052 0.000400 0.000000
0.000049 0.000410 0.000000
0.000053 0.000419 0.000000
0.000051 0.000430 0.000000
0.000053 0.000440 0.000000
0.000047 0.000451 0.000000
0.000054 0.000458 0.000000
0.000052 0.000470 0.000000
0.000055 0.000483 0.000000
0.000048 0.000488 0.000000
0.000050 0.000498 0.000000
0.001262 0.001213 0.000000
0.001217 0.001202 0.000000
0.001283 0.001187 0.000000
0.001292 0.001174 0.000000
0.001310 0.001179 0.000000
0.001328 0.001176 0.000000
0.001320 0.001173 0.000000
0.001338 0.001176 0.000000
0.001352 0.001168 0.000000
0.001358 0.001157 0.000000
0.000060 0.000300 0.000000
0.000060 0.000310 0.000000
0.000060 0.000320 0.000000
0.000060 0.000331 0.000000
0.000061 0.000340 0.000000
0.000059 0.000350 0.000000
0.000062 0.000359 0.000000
0.000060 0.000368 0.000000
0.000062 0.000381 0.000000
0.000059 0.000390 0.000000
0.000063 0.000399 0.000000
0.000060 0.000410 0.000000
0.000064 0.000419 0.000000
0.000058 0.000430 0.000000
0.000065 0.000439 0.000000
0.000061 0.000449 0.000000
0.000065 0.000460 0.000000
0.000055 0.000471 0.000000
0.000064 0.000475 0.000000
0.000068 0.000485 0.000000
0.000058 0.000496 0.000000
0.001251 0.001212 0.000000
0.001261 0.001197 0.000000
0.001276 0.001179 0.000000
0.001298 0.001182 0.000000
0.001309 0.001168 0.000000
0.001308 0.001160 0.000000
0.001338 0.001159 0.000000
0.001329 0.001166 0.000000
0.001348 0.001157 0.000000
0.001355 0.001149 0.000000
0.000070 0.000300 0.000000
0.000070 0.000310 0.000000
0.000070 0.000319 0.000000
0.000070 0.000328 0.000000
0.000071 0.000340 0.000000
0.000070 0.000350 0.000000
0.000072 0.000359 0.000000
0.000067 0.000372 0.000000
0.000082 0.000376 0.000000
0.000070 0.000390 0.000000
0.000073 0.000400 0.000000
0.000068 0.000410 0.000000
0.000074 0.000420 0.000000
0.000068 0.000429 0.000000
0.000076 0.000438 0.000000
0.000066 0.000452 0.000000
0.000078 0.000458 0.000000
0.000072 0.000470 0.000000
0.000076 0.000486 0.000000
0.000068 0.000495 0.000000
0.000076 0.000496 0.000000
0.001034 0.001019 0.000000
0.001251 0.001200 0.000000
0.001272 0.001189 0.000000
0.001290 0.001159 0.000000
0.001307 0.001180 0.000000
0.001320 0.001161 0.000000
0.001330 0.001158 0.000000
0.001324 0.001149 0.000000
0.001344 0.001148 0.000000
0.001351 0.001140 0.000000
0.000080 0.000300 0.000000
0.000080 0.000310 0.000000
0.000081 0.000321 0.000000
0.000079 0.000332 0.000000
0.000081 0.000340 0.000000
0.000080 0.000351 0.000000
0.000082 0.000361 0.000000
0.000074 0.000370 0.000000
0.000075 0.000383 0.000000
0.000080 0.000392 0.000000
0.000090 0.000397 0.000000
0.000079 0.000411 0.000000
0.000087 0.000417 0.000000
0.000078 0.000431 0.000000
0.000086 0.000445 0.000000
0.000076 0.000448 0.000000
0.000084 0.000464 0.000000
0.000074 0.000470 0.000000
0.000088 0.000472 0.000000
0.000085 0.000482 0.000000
0.000084 0.000495 0.000000
0.001242 0.001211 0.000000
0.001213 0.001207 0.000000
0.001275 0.001168 0.000000
0.001286 0.001176 0.000000
0.001299 0.001167 0.000000
0.001304 0.001152 0.000000
0.001314 0.001152 0.000000
0.001333 0.001146 0.000000
0.001340 0.001139 0.000000
0.001347 0.001130 0.000000
0.000090 0.000300 0.000000
0.000090 0.000310 0.000000
0.000090 0.000319 0.000000
0.000090 0.000329 0.000000
0.000091 0.000339 0.000000
0.000089 0.000349 0.000000
0.000092 0.000361 0.000000
0.000087 0.000369 0.000000
0.000093 0.000379 0.000000
0.000088 0.000387 0.000000
0.000083 0.000404 0.000000
0.000093 0.000409 0.000000
0.000086 0.000425 0.000000
0.000097 0.000426 0.000000
0.000090 0.000434 0.000000
0.000097 0.000455 0.000000
0.000087 0.000453 0.000000
0.000098 0.000472 0.000000
0.000106 0.000480 0.000000
0.000089 0.000494 0.000000
0.000094 0.000495 0.000000
0.001052 0.001055 0.000000
0.001245 0.001194 0.000000
0.001234 0.001201 0.000000
0.001264 0.001187 0.000000
0.001280 0.001157 0.000000
0.001307 0.001143 0.000000
0.001320 0.001142 0.000000
0.001327 0.001136 0.000000
0.001336 0.001130 0.000000
0.001343 0.001122 0.000000
0.000100 0.000300 0.000000
0.000100 0.000310 0.000000
0.000100 0.000321 0.000000
0.000100 0.000331 0.000000
0.000102 0.000341 0.000000
0.000098 0.000350 0.000000
0.000102 0.000359 0.000000
0.000100 0.000370 0.000000
0.000102 0.000380 0.000000
0.000099 0.000391 0.000000
0.000101 0.000400 0.000000
0.000103 0.000407 0.000000
0.000100 0.000417 0.000000
0.000100 0.000437 0.000000
0.000108 0.000442 0.000000
0.000096 0.000445 0.000000
0.000107 0.000460 0.000000
0.000096 0.000465 0.000000
0.000094 0.000481 0.000000
0.000106 0.000491 0.000000
0.000101 0.000494 0.000000
0.001171 0.001188 0.000000
0.001181 0.001192 0.000000
0.001207 0.001205 0.000000
0.001287 0.001163 0.000000
0.001295 0.001150 0.000000
0.001297 0.001140 0.000000
0.001317 0.001133 0.000000
0.001308 0.001130 0.000000
0.001330 0.001124 0.000000
0.001338 0.001113 0.000000
0.000110 0.000300 0.000000
0.000110 0.000310 0.000000
0.000110 0.000320 0.000000
0.000110 0.000329 0.000000
0.000110 0.000338 0.000000
0.000111 0.000351 0.000000
0.000109 0.000361 0.000000
0.000112 0.000370 0.000000
0.000110 0.000379 0.000000
0.000110 0.000389 0.000000
0.000112 0.000398 0.000000
0.000111 0.000415 0.000000
0.000116 0.000423 0.000000
0.000105 0.000427 0.000000
0.000114 0.000432 0.000000
0.000107 0.000450 0.000000
0.000116 0.000462 0.000000
0.000110 0.000470 0.000000
0.000116 0.000480 0.000000
0.000111 0.000493 0.000000
0.000119 0.000492 0.000000
0.001117 0.001146 0.000000
0.001062 0.001075 0.000000
0.001239 0.001189 0.000000
0.001258 0.001177 0.000000
0.001248 0.001173 0.000000
[...]
POINT_DATA 6231
SCALARS density float 1
LOOKUP_TABLE default
4415.711593
4427.311614
4423.464066
4423.831511
4422.982961
4422.238772
4426.656007
4427.839580
4429.632915
4430.598011
4429.078348
4434.190566
4428.625017
4428.300207
4430.969861
4440.462358
4423.695290
4431.877589
4413.480966
4424.507172
4411.251174
4430.776621
4422.698079
4442.307515
4434.805595
4418.171674
4403.958332
4425.222085
4448.430237
4449.120853
4414.648845
4417.806313
4424.443986
4426.029581
4427.315498
4431.436728
4429.350104
4423.761328
4424.384609
4424.493448
4428.489956
4422.823461
4424.755923
4424.994450
4441.111302
4415.985387
4427.186897
4410.800312
4441.514008
4462.837453
4459.495426
4416.436121
4411.779687
4416.572975
4440.401808
4496.324250
4405.373301
4404.558547
4428.353818
4402.678218
4450.975896
4437.608341
4420.343998
4431.971118
4426.662077
4424.713785
4422.204584
4426.454668
4428.791569
4438.282798
4424.434325
4432.608666
4429.494293
4442.039120
4418.839145
4435.919752
4416.429068
4474.630913
4401.412681
4455.541016
4351.631959
4450.535935
4421.562099
4426.110450
4438.485370
4421.262186
4488.004987
4353.565267
4359.122565
4409.917308
4421.149615
4426.691449
4404.978937
4429.009771
4431.120437
4422.700053
4437.609592
4435.182430
4432.241967
4425.803230
4425.278701
4423.423199
4438.306494
4408.791267
4433.863978
4418.338775
4446.600596
4405.877141
4429.140337
4388.722447
4453.273939
4371.098040
4551.762549
4372.984664
4435.109190
4457.180234
4424.419370
4458.637909
4333.220001
4484.507693
4453.748788
4423.814327
4478.631014
4426.077416
4432.368836
4428.055511
4434.160186
4434.333839
4419.818369
4438.137748
4429.083083
4442.496615
4425.188701
4434.304333
4419.966565
4446.713606
4409.130641
4445.978037
4414.629236
4452.007014
4389.168588
4512.212446
4311.083143
4418.632919
4384.627833
4432.690188
4416.624467
4436.080575
4431.113417
4489.822158
4439.171781
4406.435879
4479.929428
4446.462108
4413.193526
4430.412263
4431.579184
4430.836870
4432.105918
4436.081179
4440.220479
4413.067081
4441.911602
4410.024836
4437.315844
4416.240741
4441.777485
4404.496410
4446.256733
4375.109221
4476.820332
4363.337272
4471.863870
4363.314068
4537.477652
4382.174485
4436.005556
4424.262842
4452.093001
4464.424616
4471.414678
4457.302448
4396.673254
4392.850219
4425.461315
4420.111464
4428.609441
4439.368950
4422.230335
4438.337580
4430.452615
4431.882969
4428.501677
4439.352719
4414.828595
4448.905972
4422.024700
4439.939371
4418.103637
4447.760561
4405.032070
4469.271972
4398.342921
4513.777443
4379.240137
4468.563818
4433.102450
4412.896845
4387.458529
4388.818721
4387.321306
4435.929856
4444.103331
4415.219558
4416.005155
4419.100453
4434.854194
4432.243634
4431.111839
4425.234403
4438.188768
4410.442580
4442.495025
4423.409677
4423.790202
4421.796432
4446.003011
4399.007065
4439.072968
4412.639157
4434.960720
4443.428267
4459.265263
4429.838791
4454.211205
4451.887340
4414.434953
4389.836914
4434.844609
4470.200244
4453.083104
4424.547710
4432.923238
4410.390379
4450.155156
4440.421943
4437.481120
4415.713490
4431.072997
4424.059620
4427.908826
4422.573420
4417.295385
4443.968567
4421.236833
4437.773458
4421.041444
4445.979313
4421.749806
4429.633082
4421.711651
4438.847003
4449.642162
4400.231381
4459.435080
4447.436503
4368.908879
4462.902986
4412.079744
4426.863730
4413.642076
4428.305095
4437.657170
4387.220679
4446.899217
4440.756925
4402.160476
4440.561524
4434.086404
4424.986699
4436.101275
4434.337600
4414.771618
4438.867031
4425.242784
4414.992331
4446.922405
4419.617607
4421.712037
4436.254860
4417.315778
4426.389150
4456.790933
4411.747110
4389.840597
4427.104982
4414.661129
4434.880246
4424.854624
4412.384538
4428.249465
4413.996782
4438.688008
4467.781516
4411.465680
4383.872532
4438.641163
4435.963036
4435.729397
4412.259102
4429.895521
4433.509561
4413.045656
4443.817175
4425.992926
4421.474182
4449.930009
4412.675768
4451.811868
4417.516498
4440.871384
4436.429221
4411.813332
4405.380872
4446.362700
4457.657533
4426.031038
4463.254475
4428.278278
4428.590595
4415.350742
4425.716045
4432.455503
4428.156644
4439.502701
4444.596912
4419.163536
4409.532855
4469.851717
4448.744210
4425.916721
4429.876968
4433.918816
4435.059376
4434.929494
4420.651744
4419.676539
4437.312353
4417.390009
4429.613059
4426.477957
4408.519069
4438.806987
4413.961670
4443.121603
4418.611658
4425.331761
4474.911796
4403.286079
4456.969901
4408.440497
4413.164197
4439.652263
4441.442119
4401.326816
4394.374796
4394.071258
4445.518188
4441.802965
4415.477152
4422.177435
4452.578402
4431.212885
4426.363804
4426.282078
4416.527130
4438.935551
4444.509238
4407.664800
4447.475620
4407.495481
4443.876275
4433.064197
4422.643141
4429.494880
4459.192269
4414.053856
4402.344983
4413.511844
4384.089954
4432.540710
4435.484394
4391.200599
4435.460048
4418.172279
4426.338200
4459.159797
4452.722916
4404.600146
4352.547568
4458.762157
4387.703985
4419.519326
4438.155915
4429.578193
4433.381113
4443.763347
4419.444663
4413.992983
4426.360936
4440.387743
4417.924319
4418.678173
4417.106857
4415.097617
4444.962684
4418.547584
4395.000842
4473.926339
4410.699060
4466.480151
4489.425847
4417.259107
4440.325504
4433.612196
4422.964382
4422.810889
4423.997484
4439.206730
4438.295599
4460.606281
4466.738649
4489.108198
4453.751761
4433.037000
4433.277533
4431.028273
4413.966098
4436.931869
4434.476538
4441.014541
4403.379881
4443.864261
4413.011634
4425.559141
4448.373819
4461.925005
4436.739193
4429.018797
4361.455912
4413.820510
4484.671904
4569.806793
4389.547976
4379.558556
4425.695257
4421.067725
4435.041544
4450.483791
4415.185231
4458.926342
4430.991886
4403.549297
4408.531438
4445.755040
4428.839956
4437.670566
4433.509079
4423.940588
4440.455408
4393.119378
4436.540849
4432.005781
4390.358932
4430.068850
4449.045679
4428.977260
4400.907992
4407.395746
4447.159802
4430.717685
4520.166654
4344.969294
4325.670229
4459.482257
4393.339233
4426.878721
4429.048499
4454.032852
4474.631936
4443.760284
4444.835773
4431.882387
4388.897394
4421.916878
4413.835123
4433.357516
4430.928764
4425.652787
4425.772719
4430.652909
4451.829594
4418.946115
4425.535525
4454.889900
4445.147232
4443.759188
4418.431289
4472.703612
4395.211656
4437.053398
4437.411347
4402.881383
4487.102685
4467.695380
4421.707796
4406.558899
4424.214948
4409.960004
4468.780334
4368.510575
4457.953819
4471.098317
4427.077876
4403.622786
4431.414842
4430.202216
4437.739583
4426.169232
4434.215858
4449.731780
4408.889845
4438.693779
4389.207848
4444.393198
4449.336127
4402.797762
4416.871201
4428.668601
4419.921697
4459.608091
4420.195550
4431.678681
4396.935378
4468.324692
4382.478556
4391.726505
4419.326366
4426.621166
4432.506367
4440.327463
4395.265304
4469.310718
4429.372487
4394.775774
4458.239813
4425.091412
4437.329189
4424.794376
4431.120744
4420.354554
4434.806781
4430.316599
4423.761998
4452.471759
4413.934404
4410.296587
4427.935361
4433.931085
4462.870311
4437.675234
4435.675179
4408.933202
4451.215396
4392.086011
4434.924732
4423.267545
4437.200296
4386.397857
4424.327531
4430.131673
4415.345938
4453.396982
4423.080801
4469.151225
4466.913721
4413.853309
4427.863385
4420.979638
4419.511316
4436.532107
4428.567590
4410.302726
4446.643991
4396.177095
4452.538737
4400.404717
4448.835924
4430.956887
4413.153889
4404.051822
4441.308598
4413.270348
4405.882444
4450.800508
4370.492384
4463.977725
4425.347912
4554.216915
4376.873582
4470.611260
4418.376900
4412.071351
4436.934506
4386.852971
4461.620056
4403.080427
4414.099420
4427.477676
4422.988650
4431.845780
4424.379257
4426.941333
4429.314722
4416.137878
4443.054071
4416.142448
4435.391900
4395.966172
4432.939860
4459.951300
4420.968936
4440.142086
4430.905582
4448.146422
4436.212872
4473.330500
4474.849767
4389.900866
4384.905838
4437.000379
4418.692725
4434.381109
4465.961792
4442.933686
4399.296177
4425.072473
4453.953801
4465.223282
4424.715707
4411.092773
4433.048380
4422.880596
4430.566784
4438.638171
4406.373885
4450.571011
4394.132112
4421.811510
4423.561591
4405.064614
4416.464580
4408.827443
4459.349911
4425.009074
4395.145513
4462.168442
4428.867743
4403.604910
4395.061416
4457.909946
4415.681123
4449.071382
4419.434185
4425.191327
4439.799894
4397.888008
4386.628040
4455.102434
4358.385032
4419.088444
4443.185077
4423.995541
4438.359936
4423.172531
4423.511673
4435.108606
4410.335286
4448.220506
4413.608426
4429.482346
4442.883137
4401.814988
4439.041738
4456.538399
4424.059973
4391.550779
4456.913447
4418.078442
4413.805455
4449.748068
4451.573777
4428.338081
4424.235279
4414.935666
4461.055399
4404.346369
4432.290119
4473.893375
4339.936558
4489.019624
4391.445882
4422.925107
4422.633550
4430.756560
4423.309692
4423.422699
4437.597316
4415.054151
4428.073077
4421.570872
4400.238531
4439.673343
4420.496735
4440.386582
4387.992402
4428.093983
4426.124473
4426.699039
4413.414220
4451.352602
4402.184203
4429.104682
4424.761358
4408.357516
4430.653101
4426.193419
4430.088341
4453.699374
4441.757476
4406.772380
4446.748697
4436.720045
4442.920179
4430.628332
4427.034588
4434.887974
4434.712028
4408.162103
4443.248054
4394.494936
4450.448266
4440.906526
4423.684987
4432.792258
4431.932850
4443.792402
4455.643610
4389.362558
4454.766936
4401.688510
4452.388600
4438.043322
4468.996057
4414.324945
4420.658670
4460.675230
4412.316764
4435.216275
4450.699889
4431.194549
4457.491066
4418.185555
4422.122624
4433.511710
4433.815016
4429.282590
4416.704611
4439.074404
4424.338868
4440.081274
4436.020902
4419.931590
4405.549661
4452.545657
4436.182805
4447.684931
4445.473853
4427.352270
4426.622803
4446.447654
4399.830799
4451.910271
4368.598472
4427.226287
4431.386861
4415.104279
4465.573406
4441.145085
4416.249861
4393.034694
4444.897875
4438.095008
4446.265867
4411.674559
4420.734805
4424.269992
4440.006065
4431.024496
4427.061317
4419.735116
4419.144254
4413.148586
4446.068135
4427.635552
4430.025973
4397.403799
4463.373499
4397.680389
4408.437118
4391.706113
4452.628060
4427.006776
4460.291176
4420.900447
4437.421473
4424.671996
4433.058622
4427.279125
4408.803938
4423.852171
4453.981233
4415.749374
4419.697356
4477.345187
4409.927578
4440.657085
4430.195648
4430.468076
4419.075771
4429.214469
4431.384952
4446.814218
4435.345836
4420.649499
4414.033338
4440.603037
4415.255705
4412.661324
4415.949847
4445.371767
4424.285051
4460.307985
4405.680910
4457.787084
4416.700928
4436.386235
4414.924873
4423.709602
4424.092731
4430.375686
4412.406672
4416.937650
4426.237382
4434.373090
4424.248076
4404.580093
4428.779365
4431.369712
4426.354587
4428.863578
4445.372003
4418.064180
4407.512085
4435.649302
4435.052509
4426.968936
4417.406622
4442.479588
4432.360779
4433.323338
4442.684836
4390.103680
4446.171935
4395.498595
4456.412589
4428.631554
4431.322939
4409.327140
4427.974628
4418.686864
4426.747949
4471.568618
4406.102484
4404.579227
4448.286354
4401.376409
4436.712562
4409.241553
4422.750712
4429.533535
4434.663092
4412.111005
4438.842828
4444.936409
4429.641481
4421.847796
4436.634942
4436.096654
4412.031538
4433.580641
4438.614882
4398.826305
4430.892231
4433.396207
4418.641892
4372.578189
4373.517172
4461.844668
4434.492883
4408.651004
4422.590179
4403.294839
4450.782469
4419.477666
4414.108004
4464.415753
4426.269480
4422.743478
4445.721157
4431.258533
4433.900657
4426.177252
4433.674240
4435.715669
4398.956410
4433.853388
4438.916388
4417.456113
4432.342241
4462.198692
4415.684885
4438.282799
4442.646411
4431.206691
4396.624171
4418.799153
4497.410449
4465.482739
4430.085128
4436.533500
4431.193508
4425.709650
4420.953595
4413.547853
4420.040158
4439.980910
4413.060671
4429.172172
4416.627280
4437.578823
4434.860864
4429.335933
4428.766363
4436.061285
4422.863318
4450.139288
4434.352935
4413.063050
4435.954443
4426.163010
4414.621488
4430.734451
4444.196053
4413.428776
4439.583338
4462.646955
4387.796537
4456.580744
4399.465976
4386.570558
4429.559261
4435.628432
4428.004355
4399.945306
4473.466712
4402.135472
4413.260826
4424.599452
4468.856069
4359.469424
4415.683122
4433.050112
4433.794432
4436.633972
4429.639271
4418.090583
4439.418381
4402.739711
4433.095556
4423.953474
4445.280660
4436.146328
4429.733841
4415.087423
4462.488487
4421.394575
4429.621307
4399.290969
4395.014225
4465.682795
4459.025077
4445.132993
4399.768106
4396.653030
4430.502396
4436.393011
4450.587512
4374.120547
4475.832255
4430.753821
4455.133369
4417.774645
4440.434279
4436.165077
4420.943874
4432.917076
4432.844596
4422.243565
4405.483441
4403.545055
4447.729178
4412.637699
4406.634171
4443.727498
4420.527123
4429.698086
4401.001458
4436.067399
4463.230547
4452.047004
4331.830281
4476.310278
4461.028627
4430.087889
4474.809016
4427.142213
4436.581298
4457.667304
4440.798097
4430.872311
4403.014571
4411.813843
4437.240776
4434.976485
4435.764165
4427.149025
4436.197355
4409.873907
4446.550267
4421.280789
4422.856053
4430.654869
4453.719118
4397.752766
4436.330750
4415.948451
4424.457488
4411.345630
4447.606897
4366.494737
4450.934715
4327.438424
4494.793279
4437.480204
4421.329063
4425.270410
4498.288135
4423.530314
4436.750773
4396.946836
4466.325240
4353.548876
4435.905649
4445.919469
4429.828294
4432.570359
4427.873401
4433.380673
4424.518693
4427.307223
4417.421010
4444.673281
4405.990284
4413.363017
4445.284599
4443.713917
4405.289750
4449.835168
4388.144185
4467.469926
4392.039262
4474.701481
4463.590089
4506.413745
4421.085142
4420.230229
4368.126856
4423.518180
4415.657308
4441.293355
4458.414244
4443.388070
4435.754879
4354.708069
4453.804120
4422.132997
4430.088628
4430.134705
4426.352756
4421.038895
4427.610153
4419.078200
4432.007570
4442.913568
4442.937656
4418.647524
4433.720997
4418.729490
4442.931848
4437.428560
4425.249957
4435.300528
4426.789656
4430.480506
4503.568451
4444.722800
4427.577743
4438.066587
4424.522798
4407.222451
4447.974035
4417.084615
4441.606868
4431.770073
4448.437371
4413.689403
4423.756581
4430.921198
4432.442354
4432.356299
4446.055864
4447.511953
4422.800808
4448.392040
4401.631264
4413.315571
4439.121096
4447.749319
4424.777718
4385.439014
4435.759928
4414.933955
4461.000500
4407.301074
4393.251858
4430.624614
4390.716907
4422.672661
4425.799240
4439.111178
4428.766444
4451.432095
4385.681674
4384.038086
4482.169102
4459.501513
4406.956350
4433.005119
4432.752334
4407.149686
4430.031577
4410.822754
4429.026821
4401.515147
4426.846085
4445.976304
4428.915284
4443.522385
4421.762122
4457.147529
4441.204721
4431.989511
4454.675131
4376.618095
4450.861321
4429.811694
4446.685111
4429.707922
4442.829657
4427.395741
4439.225942
4439.712997
4454.174369
4480.483000
4447.157739
4393.260347
4419.042988
4401.608570
4430.740794
4427.835801
4436.792080
4444.009782
4405.496955
4421.084913
4433.238371
4422.132549
4425.826916
4417.405813
4429.724622
4412.914363
4415.965302
4407.355573
4426.046969
4418.800363
4429.074745
4416.524290
4429.475100
4440.125998
4432.630607
4430.371183
4433.406829
4418.882714
4438.475985
4436.499334
4398.929863
4494.298576
4398.886585
4452.335126
4426.514394
4428.213173
4425.212493
4428.181516
4398.655848
4450.425587
4428.640568
4423.508508
4422.604987
4420.611104
4435.335635
4435.316488
4458.035821
4407.827994
4436.240214
4424.539876
4430.298172
4426.323392
4397.561009
4427.181966
4440.230065
4429.466790
4405.631268
4442.746733
4428.869331
4446.738539
4440.332829
4442.334941
4438.407789
4351.057490
4395.480422
4405.946768
4419.577047
4425.914575
4436.366973
4409.877804
4441.718886
4389.694805
4438.231721
4435.159898
4422.866938
4398.298782
4380.792005
4439.517532
4424.721861
4413.660409
4408.544818
4441.806662
4485.128368
4378.552770
4441.994599
4437.635443
4433.540155
4426.802714
4434.017111
4427.759218
4413.520509
4459.978691
4437.647162
4386.896374
4450.577467
4469.630988
4416.724517
4428.575573
4426.415695
4416.487326
4414.160674
4418.700800
4425.935577
4445.309246
4431.885566
4457.598110
4421.445808
4402.450290
4423.726735
4458.305635
4421.767066
4440.526323
4425.384647
4421.883472
4388.838288
4381.413981
4420.806699
4442.514142
4433.733966
4415.243836
4438.614027
4407.249854
4430.050253
4403.112412
4391.230246
4450.440024
4406.370622
4426.593215
4426.121549
4422.816775
4426.572459
4449.460683
4430.554728
4433.887184
4414.981107
4439.552364
4430.444040
4388.352675
4438.883481
4450.960079
4423.778188
4418.507487
4415.489034
4418.168506
4427.932038
4453.368460
4456.686331
4432.328247
4442.601443
4430.833775
4437.498521
4409.662145
4461.473181
4445.193148
4434.139655
4452.415592
4456.595636
4430.261802
4403.730098
4422.091619
4433.053948
4419.516473
4408.331687
4435.972399
4402.792186
4439.357297
4431.782685
4430.922494
4415.836560
4460.728390
4396.338932
4448.140099
4403.014678
4425.104615
4422.809631
4428.212625
4431.975512
4396.309843
4468.344194
4441.171607
4433.314663
4405.651302
4450.428286
4401.320854
4440.054434
4391.008700
4421.594957
4373.897025
4401.362414
4410.773278
4428.582894
4430.434045
4430.637221
4431.229310
4443.277352
4427.451643
4410.174732
4419.575688
4435.368053
4425.108604
4440.943400
4430.835245
4415.635472
4436.568137
4423.213550
4399.058208
4429.747330
4464.904745
4391.801168
4432.731545
4418.283080
4399.024826
4437.011440
4426.207518
4443.338172
4465.492007
4437.456828
4413.933941
4407.762453
4454.196313
4451.478235
4428.119860
4422.056182
4430.056940
4438.121241
4398.363913
4423.226387
4456.299978
4432.495690
4426.477794
4434.629865
4431.623077
4409.207730
4436.497851
4445.700266
4446.151209
4424.624382
4425.960385
4441.886535
4446.273615
4341.035075
4402.027170
4425.538240
4419.775050
4436.293079
4458.127149
4481.276964
4436.941713
4446.870784
4423.138351
4407.374997
4382.838993
4429.606355
4436.853129
4426.646120
4423.335139
4446.413549
4425.686987
4421.470108
4426.381465
4415.447761
4416.019823
4430.482490
4424.103149
4431.081457
4411.845793
4453.844612
4381.105467
4431.005657
4476.223951
4391.498655
4538.992077
4390.255810
4425.778979
4415.102003
4425.762475
4445.623806
4436.006632
4414.078105
4457.468054
4473.114382
4448.703056
4418.646833
4430.760653
4438.438271
4415.994051
4428.241016
4419.433572
4425.767338
4433.720215
4431.834431
4432.192051
4432.142727
4394.559245
4425.744647
4400.228098
4446.284903
4441.980095
4445.510743
4428.623280
4410.938571
4431.612726
4427.061572
4468.319231
4442.829473
4462.780297
4421.548041
4459.878211
4480.694554
4411.981811
4381.732114
4464.420003
4435.185773
4461.094960
4432.431466
4428.301918
4436.180852
4437.160889
4410.716428
4450.372081
4404.933433
4451.271247
4415.056845
4436.492879
4427.759792
4423.754089
4425.388235
4441.754443
4393.604459
4444.544180
4425.081338
4398.665620
4439.225154
4450.663347
4441.022005
4437.040077
4456.693063
4468.745612
4448.337423
4434.305363
4380.020124
4372.343617
4376.270881
4356.322621
4404.263024
4432.573193
4434.767914
4415.844403
4418.677094
4434.488819
4434.555901
4415.821372
4445.765028
4432.063787
4447.263950
4434.751798
4457.068667
4430.699246
4424.606994
4462.502385
4418.947777
4416.952021
4450.468699
4393.461996
4428.855162
4450.469921
4417.556023
4435.622214
4431.917439
4462.396099
4445.255963
4393.139261
4460.203842
4447.616091
4416.541241
4445.257819
4433.441629
4426.490288
4441.784689
4422.493362
4435.638205
4416.151388
4409.501062
4437.545838
4473.938229
4413.333122
4433.635580
4419.150236
4422.840349
4452.916972
4399.653133
4441.941782
4426.076521
4452.656952
4390.444334
4411.285243
4417.000530
4433.452050
4378.335151
4441.550074
4376.564567
4413.594481
4442.710962
4463.610932
4469.024056
4409.011585
4419.480800
4430.646334
4418.838986
4423.424751
4435.547207
4448.742680
4440.760344
4419.524277
4412.252312
4402.597717
4424.795621
4390.385670
4445.970176
4436.211592
4426.748374
4445.993258
4440.179113
4422.187540
4462.387143
4471.242781
4381.138280
4424.530944
4419.301108
4434.201941
4413.934460
4391.045955
4442.450929
4398.079039
4463.125357
4430.576578
4406.992004
4398.510669
4426.596477
4437.385044
4433.647225
4417.202384
4426.116443
4418.892049
4431.511897
4437.660659
4416.774691
4416.740807
4446.264917
4432.319377
4405.697218
4435.588853
4417.464736
4396.982172
4441.290903
4457.448258