# vtk DataFile Version 2.0
mfree iwf
ASCII

DATASET UNSTRUCTURED_GRID
POINTS 6231 float
0.000000 0.000300 0.000000
0.000000 0.000310 0.000000
0.000000 0.000320 0.000000
0.000000 0.000330 0.000000
0.000000 0.000340 0.000000
0.000001 0.000350 0.000000
0.000001 0.000360 0.000000
0.000001 0.000370 0.000000
0.000001 0.000380 0.000000
0.000001 0.000390 0.000000
0.000001 0.000400 0.000000
0.000001 0.000410 0.000000
0.000001 0.000420 0.000000
0.000001 0.000430 0.000000
0.000002 0.000440 0.000000
0.000002 0.000450 0.000000
0.000002 0.000460 0.000000
0.000002 0.000471 0.000000
0.000002 0.000480 0.000000
0.000002 0.000492 0.000000
0.000006 0.000501 0.000000
0.000340 0.000681 0.000000
0.000367 0.000758 0.000000
0.000346 0.000699 0.000000
0.000374 0.000771 0.000000
0.000387 0.000790 0.000000
0.000421 0.000825 0.000000
0.000427 0.000828 0.000000
0.000439 0.000833 0.000000
0.000451 0.000839 0.000000
0.000483 0.000859 0.000000
0.000010 0.000300 0.000000
0.000010 0.000310 0.000000
0.000010 0.000320 0.000000
0.000010 0.000330 0.000000
0.000010 0.000340 0.000000
0.000010 0.000350 0.000000
0.000011 0.000360 0.000000
0.000011 0.000370 0.000000
0.000011 0.000380 0.000000
0.000011 0.000390 0.000000
0.000011 0.000400 0.000000
0.000011 0.000410 0.000000
0.000011 0.000420 0.000000
0.000012 0.000430 0.000000
0.000012 0.000440 0.000000
0.000012 0.000451 0.000000
0.000012 0.000460 0.000000
0.000012 0.000472 0.000000
0.000013 0.000478 0.000000
0.000010 0.000492 0.000000
0.000013 0.000498 0.000000
0.000403 0.000800 0.000000
0.000412 0.000809 0.000000
0.000419 0.000814 0.000000
0.000426 0.000818 0.000000
0.000442 0.000824 0.000000
0.000451 0.000830 0.000000
0.000464 0.000837 0.000000
0.000473 0.000844 0.000000
0.000477 0.000848 0.000000
0.000479 0.000854 0.000000
0.000020 0.000300 0.000000
0.000020 0.000310 0.000000
0.000020 0.000320 0.000000
0.000020 0.000330 0.000000
0.000020 0.000340 0.000000
0.000020 0.000351 0.000000
0.000021 0.000360 0.000000
0.000021 0.000370 0.000000
0.000020 0.000380 0.000000
0.000022 0.000390 0.000000
0.000020 0.000400 0.000000
0.000022 0.000410 0.000000
0.000020 0.000420 0.000000
0.000023 0.000431 0.000000
0.000020 0.000440 0.000000
0.000024 0.000451 0.000000
0.000021 0.000460 0.000000
0.000022 0.000470 0.000000
0.000021 0.000481 0.000000
0.000024 0.000494 0.000000
0.000020 0.000497 0.000000
0.000386 0.000770 0.000000
0.000401 0.000792 0.000000
0.000409 0.000802 0.000000
0.000417 0.000803 0.000000
0.000428 0.000806 0.000000
0.000437 0.000817 0.000000
0.000460 0.000829 0.000000
0.000470 0.000837 0.000000
0.000484 0.000838 0.000000
0.000491 0.000841 0.000000
0.000030 0.000300 0.000000
0.000030 0.000310 0.000000
0.000030 0.000320 0.000000
0.000031 0.000331 0.000000
0.000030 0.000340 0.000000
0.000032 0.000349 0.000000
0.000030 0.000360 0.000000
0.000031 0.000370 0.000000
0.000030 0.000380 0.000000
0.000032 0.000390 0.000000
0.000030 0.000400 0.000000
0.000032 0.000411 0.000000
0.000031 0.000419 0.000000
0.000032 0.000430 0.000000
0.000031 0.000440 0.000000
0.000031 0.000450 0.000000
0.000032 0.000459 0.000000
0.000037 0.000473 0.000000
0.000030 0.000478 0.000000
0.000033 0.000488 0.000000
0.000032 0.000497 0.000000
0.000063 0.000500 0.000000
0.000402 0.000786 0.000000
0.000416 0.000790 0.000000
0.000440 0.000809 0.000000
0.000450 0.000809 0.000000
0.000449 0.000820 0.000000
0.000459 0.000817 0.000000
0.000467 0.000823 0.000000
0.000476 0.000828 0.000000
0.000495 0.000833 0.000000
0.000040 0.000300 0.000000
0.000040 0.000310 0.000000
0.000040 0.000321 0.000000
0.000040 0.000329 0.000000
0.000040 0.000340 0.000000
0.000040 0.000351 0.000000
0.000041 0.000359 0.000000
0.000041 0.000370 0.000000
0.000041 0.000380 0.000000
0.000040 0.000390 0.000000
0.000042 0.000399 0.000000
0.000041 0.000410 0.000000
0.000042 0.000420 0.000000
0.000040 0.000431 0.000000
0.000042 0.000439 0.000000
0.000043 0.000450 0.000000
0.000043 0.000460 0.000000
0.000037 0.000469 0.000000
0.000045 0.000478 0.000000
0.000043 0.000496 0.000000
0.000040 0.000498 0.000000
0.000340 0.000553 0.000000
0.000416 0.000784 0.000000
0.000428 0.000795 0.000000
0.000436 0.000792 0.000000
0.000437 0.000803 0.000000
0.000459 0.000805 0.000000
0.000478 0.000818 0.000000
0.000486 0.000817 0.000000
0.000487 0.000827 0.000000
0.000499 0.000826 0.000000
0.000050 0.000300 0.000000
0.000050 0.000310 0.000000
0.000050 0.000319 0.000000
0.000049 0.000332 0.000000
0.000052 0.000340 0.000000
0.000050 0.000349 0.000000
0.000052 0.000360 0.000000
0.000049 0.000370 0.000000
0.000052 0.000379 0.000000
0.000050 0.000390 0.000000
0.000053 0.000400 0.000000
0.000049 0.000410 0.000000
0.000054 0.000420 0.000000
0.000051 0.000430 0.000000
0.000054 0.000440 0.000000
0.000047 0.000451 0.000000
0.000055 0.000459 0.000000
0.000053 0.000470 0.000000
0.000056 0.000483 0.000000
0.000049 0.000488 0.000000
0.000050 0.000498 0.000000
0.000393 0.000786 0.000000
0.000368 0.000748 0.000000
0.000426 0.000784 0.000000
0.000446 0.000794 0.000000
0.000454 0.000799 0.000000
0.000468 0.000813 0.000000
0.000468 0.000800 0.000000
0.000474 0.000807 0.000000
0.000492 0.000815 0.000000
0.000503 0.000815 0.000000
0.000060 0.000300 0.000000
0.000060 0.000310 0.000000
0.000060 0.000321 0.000000
0.000060 0.000329 0.000000
0.000062 0.000339 0.000000
0.000059 0.000351 0.000000
0.000063 0.000360 0.000000
0.000060 0.000370 0.000000
0.000064 0.000381 0.000000
0.000058 0.000390 0.000000
0.000064 0.000400 0.000000
0.000059 0.000410 0.000000
0.000065 0.000419 0.000000
0.000058 0.000430 0.000000
0.000066 0.000440 0.000000
0.000060 0.000449 0.000000
0.000066 0.000460 0.000000
0.000055 0.000471 0.000000
0.000065 0.000475 0.000000
0.000068 0.000486 0.000000
0.000059 0.000496 0.000000
0.000387 0.000780 0.000000
0.000406 0.000778 0.000000
0.000430 0.000776 0.000000
0.000438 0.000785 0.000000
0.000451 0.000783 0.000000
0.000465 0.000790 0.000000
0.000488 0.000798 0.000000
0.000482 0.000804 0.000000
0.000496 0.000806 0.000000
0.000506 0.000807 0.000000
0.000070 0.000300 0.000000
0.000070 0.000310 0.000000
0.000070 0.000319 0.000000
0.000070 0.000330 0.000000
0.000072 0.000341 0.000000
0.000067 0.000351 0.000000
0.000076 0.000357 0.000000
0.000067 0.000371 0.000000
0.000074 0.000377 0.000000
0.000069 0.000390 0.000000
0.000074 0.000401 0.000000
0.000068 0.000410 0.000000
0.000075 0.000421 0.000000
0.000067 0.000429 0.000000
0.000075 0.000438 0.000000
0.000066 0.000452 0.000000
0.000077 0.000459 0.000000
0.000073 0.000470 0.000000
0.000076 0.000486 0.000000
0.000068 0.000496 0.000000
0.000076 0.000496 0.000000
0.000339 0.000539 0.000000
0.000397 0.000770 0.000000
0.000418 0.000774 0.000000
0.000448 0.000773 0.000000
0.000456 0.000788 0.000000
0.000471 0.000785 0.000000
0.000477 0.000793 0.000000
0.000484 0.000788 0.000000
0.000499 0.000797 0.000000
0.000510 0.000797 0.000000
0.000080 0.000300 0.000000
0.000080 0.000310 0.000000
0.000080 0.000321 0.000000
0.000081 0.000330 0.000000
0.000079 0.000339 0.000000
0.000081 0.000350 0.000000
0.000076 0.000365 0.000000
0.000083 0.000367 0.000000
0.000082 0.000382 0.000000
0.000078 0.000391 0.000000
0.000085 0.000397 0.000000
0.000078 0.000410 0.000000
0.000084 0.000417 0.000000
0.000079 0.000431 0.000000
0.000087 0.000446 0.000000
0.000077 0.000447 0.000000
0.000085 0.000463 0.000000
0.000074 0.000470 0.000000
0.000087 0.000473 0.000000
0.000086 0.000482 0.000000
0.000084 0.000495 0.000000
0.000380 0.000771 0.000000
0.000362 0.000749 0.000000
0.000432 0.000768 0.000000
0.000441 0.000774 0.000000
0.000459 0.000776 0.000000
0.000469 0.000775 0.000000
0.000478 0.000777 0.000000
0.000493 0.000787 0.000000
0.000503 0.000788 0.000000
0.000513 0.000788 0.000000
0.000090 0.000300 0.000000
0.000090 0.000310 0.000000
0.000090 0.000320 0.000000
0.000090 0.000330 0.000000
0.000090 0.000341 0.000000
0.000092 0.000351 0.000000
0.000089 0.000359 0.000000
0.000092 0.000370 0.000000
0.000088 0.000380 0.000000
0.000093 0.000388 0.000000
0.000088 0.000404 0.000000
0.000093 0.000410 0.000000
0.000088 0.000424 0.000000
0.000096 0.000427 0.000000
0.000088 0.000435 0.000000
0.000097 0.000455 0.000000
0.000087 0.000453 0.000000
0.000097 0.000471 0.000000
0.000106 0.000480 0.000000
0.000089 0.000495 0.000000
0.000095 0.000495 0.000000
0.000339 0.000573 0.000000
0.000395 0.000765 0.000000
0.000383 0.000760 0.000000
0.000411 0.000770 0.000000
0.000453 0.000766 0.000000
0.000468 0.000768 0.000000
0.000487 0.000777 0.000000
0.000495 0.000775 0.000000
0.000506 0.000778 0.000000
0.000516 0.000778 0.000000
0.000100 0.000300 0.000000
0.000100 0.000310 0.000000
0.000100 0.000320 0.000000
0.000100 0.000331 0.000000
0.000101 0.000339 0.000000
0.000099 0.000349 0.000000
0.000101 0.000360 0.000000
0.000100 0.000372 0.000000
0.000101 0.000379 0.000000
0.000102 0.000391 0.000000
0.000099 0.000399 0.000000
0.000103 0.000408 0.000000
0.000101 0.000418 0.000000
0.000100 0.000436 0.000000
0.000109 0.000443 0.000000
0.000097 0.000445 0.000000
0.000107 0.000460 0.000000
0.000098 0.000467 0.000000
0.000095 0.000481 0.000000
0.000106 0.000491 0.000000
0.000101 0.000494 0.000000
0.000347 0.000705 0.000000
0.000349 0.000712 0.000000
0.000360 0.000742 0.000000
0.000445 0.000761 0.000000
0.000461 0.000761 0.000000
0.000475 0.000762 0.000000
0.000486 0.000768 0.000000
0.000489 0.000761 0.000000
0.000506 0.000770 0.000000
0.000518 0.000769 0.000000
0.000110 0.000300 0.000000
0.000110 0.000310 0.000000
0.000110 0.000321 0.000000
0.000110 0.000330 0.000000
0.000110 0.000340 0.000000
0.000111 0.000351 0.000000
0.000111 0.000361 0.000000
0.000110 0.000369 0.000000
0.000112 0.000379 0.000000
0.000109 0.000390 0.000000
0.000112 0.000400 0.000000
0.000111 0.000413 0.000000
0.000115 0.000422 0.000000
0.000107 0.000426 0.000000
0.000112 0.000434 0.000000
0.000107 0.000449 0.000000
0.000115 0.000461 0.000000
0.000111 0.000471 0.000000
0.000116 0.000480 0.000000
0.000111 0.000493 0.000000
0.000119 0.000492 0.000000
0.000340 0.000633 0.000000
0.000340 0.000595 0.000000
0.000392 0.000756 0.000000
0.000419 0.000762 0.000000
0.000414 0.000754 0.000000
[...]
POINT_DATA 6231
SCALARS density float 1
LOOKUP_TABLE default
4402.884410
4423.534138
4420.806171
4423.346900
4425.349122
4426.068183
4426.277641
4427.064113
4429.645124
4428.903647
4426.571714
4431.114451
4430.006508
4429.705362
4430.205917
4440.826363
4422.816233
4432.420081
4412.725983
4423.511295
4411.419652
4441.715828
4424.312989
4426.124219
4438.409448
4423.534150
4408.759709
4443.682920
4439.899508
4444.961739
4418.030932
4406.382587
4421.316365
4423.052772
4421.523153
4422.292339
4428.148386
4424.726851
4417.891052
4427.640493
4430.922949
4424.980978
4431.674876
4425.750390
4437.727220
4415.411781
4428.815759
4409.863250
4442.815127
4461.127071
4460.118667
4415.801084
4397.378872
4375.926626
4410.179143
4483.118648
4402.441676
4412.398367
4420.713951
4415.754268
4435.850608
4460.455225
4414.319934
4432.813206
4420.893538
4428.912093
4427.660246
4417.017847
4430.891422
4442.514282
4423.065905
4426.910635
4429.878212
4434.473682
4414.362181
4441.432020
4417.099218
4474.242795
4400.300424
4453.943871
4352.793304
4449.774682
4420.295124
4421.622645
4418.500372
4405.533580
4557.780698
4371.030079
4371.004207
4459.049063
4402.395873
4428.575052
4404.169307
4422.629755
4423.400232
4418.060017
4425.491695
4429.915260
4438.814027
4422.193990
4419.503517
4416.860155
4442.908754
4409.015852
4437.835238
4423.336312
4443.078485
4402.876334
4430.608875
4391.852255
4457.471045
4369.518937
4555.493334
4370.761726
4431.415153
4453.117068
4461.734289
4468.221570
4391.041275
4480.787485
4412.931292
4407.922624
4508.359612
4451.044415
4428.692698
4427.470595
4440.251705
4442.467395
4415.000103
4433.315113
4420.863687
4441.219492
4424.468324
4437.139623
4409.000275
4447.925817
4398.757424
4443.598139
4415.906041
4449.825475
4386.040154
4507.522770
4311.007176
4419.869440
4384.108914
4541.013298
4409.571818
4357.399720
4489.460339
4471.794935
4425.964233
4387.633614
4421.576953
4391.588750
4421.080876
4435.992097
4424.868400
4413.565188
4423.051513
4436.102430
4437.454858
4402.635927
4446.511966
4403.098413
4434.812272
4418.694203
4443.993846
4398.306895
4463.618400
4357.099466
4481.065342
4356.137254
4478.270342
4363.176131
4535.342832
4383.152179
4444.059358
4419.449226
4457.470693
4372.150371
4443.336713
4444.009682
4414.881643
4440.696148
4449.369673
4417.924825
4422.321317
4432.368399
4438.936260
4445.376157
4415.722127
4449.090401
4418.274518
4439.994691
4425.639870
4451.345461
4405.795079
4438.452179
4426.298922
4442.458626
4424.033705
4473.035180
4404.356638
4517.795995
4370.391035
4482.205434
4431.433068
4420.261755
4396.686522
4419.043595
4443.559882
4413.726434
4411.056235
4427.096748
4411.297393
4436.908274
4433.259175
4421.218881
4432.736306
4418.977203
4416.004680
4438.406093
4423.401907
4432.572376
4442.295374
4408.220416
4430.275052
4414.850151
4431.717672
4419.208244
4428.394308
4443.177593
4459.590099
4437.821071
4461.955757
4447.630353
4412.215275
4387.232925
4635.385770
4438.197925
4431.407623
4474.814748
4464.380185
4411.592320
4437.058975
4452.491967
4422.430616
4415.044891
4425.654753
4432.770915
4412.382226
4438.668194
4434.373831
4418.985657
4426.960432
4416.458014
4443.927429
4431.883921
4407.315228
4421.585040
4418.363974
4439.900199
4464.962531
4391.215229
4453.194781
4451.757882
4357.858840
4466.452973
4411.912183
4431.812813
4411.865685
4426.410816
4411.655768
4412.786324
4436.010324
4409.957225
4435.854437
4436.069018
4438.265925
4425.801901
4432.631381
4433.646753
4427.371770
4398.426375
4444.712449
4424.631754
4428.965294
4433.875123
4409.380534
4441.902094
4412.578584
4422.014821
4457.026305
4413.090958
4377.279126
4443.687541
4437.680951
4426.790166
4426.489512
4415.844294
4632.050573
4445.045834
4425.376030
4470.365002
4433.406043
4443.199001
4460.744265
4401.898090
4419.257595
4416.011907
4430.464929
4427.348821
4417.991925
4430.355199
4442.228727
4441.262780
4408.786329
4435.512003
4420.327777
4439.488829
4439.153932
4426.924952
4427.546656
4398.893238
4444.248877
4446.634140
4417.680460
4470.735673
4414.591194
4437.343525
4419.274585
4430.604905
4433.568340
4418.423373
4403.146365
4403.817793
4442.956119
4411.853980
4494.907571
4465.760411
4407.869317
4429.666250
4431.253011
4439.508275
4430.700799
4409.082103
4412.155370
4445.679140
4443.319613
4414.385679
4443.386189
4402.203884
4445.953697
4397.079768
4446.784910
4416.896976
4446.259772
4462.294436
4386.846525
4466.315848
4399.552559
4413.031595
4450.752839
4545.205212
4429.454341
4388.143857
4436.808523
4458.344765
4408.285889
4406.550338
4423.729738
4446.688205
4437.967558
4422.070227
4423.680604
4421.437220
4440.617914
4445.163749
4408.560879
4414.282975
4442.713511
4430.983983
4423.599258
4434.226754
4430.694148
4439.029938
4428.651740
4372.508018
4433.589991
4394.531189
4418.158861
4438.853028
4394.124147
4435.732033
4410.234191
4424.744764
4458.882983
4427.092015
4412.863840
4396.216057
4425.691103
4405.894073
4416.645664
4430.222420
4428.548346
4436.424445
4431.521740
4416.378489
4414.082230
4432.280667
4443.826040
4421.443549
4406.336309
4437.946775
4426.738662
4430.470355
4426.289554
4406.665179
4439.159868
4419.641680
4447.861883
4497.854053
4420.947959
4415.380354
4467.643526
4415.769843
4424.762449
4431.518500
4422.757339
4446.529546
4441.881613
4464.559738
4471.020094
4429.436080
4428.956030
4436.538680
4435.153006
4411.021707
4424.696247
4443.483527
4425.422035
4407.790144
4436.269820
4425.954833
4441.424384
4398.354015
4442.743756
4407.697951
4442.778324
4388.796938
4413.759615
4501.806452
4569.104503
4387.883054
4373.675194
4407.910331
4407.795679
4445.848803
4446.311418
4396.989659
4471.912120
4438.625778
4393.262389
4412.140356
4435.644478
4427.873286
4433.797019
4414.574171
4445.107829
4441.946492
4396.634402
4424.970761
4438.985713
4430.564397
4402.192518
4439.745234
4417.001847
4444.760405
4389.121888
4460.085355
4408.687398
4483.655370
4352.162468
4329.563573
4506.556649
4395.476307
4416.148060
4427.625900
4431.816880
4473.740784
4470.090682
4420.774009
4407.774441
4433.056663
4425.348953
4410.921208
4424.488149
4440.663927
4433.634084
4413.411030
4421.470030
4441.737615
4443.833785
4401.132520
4421.696767
4441.490886
4424.669674
4393.668576
4440.348859
4417.518027
4432.951860
4414.486219
4417.347493
4497.555477
4489.574321
4423.236099
4404.175947
4457.268047
4451.254592
4428.355269
4388.780765
4428.342264
4439.339947
4411.623451
4418.137078
4444.321475
4421.582877
4434.424253
4426.775476
4421.499065
4442.699496
4432.843008
4419.011367
4414.079415
4442.928981
4439.585647
4402.485286
4430.773877
4448.318523
4426.635656
4437.609926
4395.498231
4449.532262
4405.658248
4468.505403
4331.154682
4358.000589
4432.383859
4396.128350
4419.278360
4393.879395
4389.444571
4457.885388
4428.849282
4442.656291
4448.295320
4421.156779
4421.561685
4431.989894
4427.952615
4429.689811
4442.092053
4413.111283
4440.043437
4429.187985
4422.044811
4410.891015
4456.940220
4409.396422
4413.265158
4408.639469
4444.053921
4406.115717
4450.353734
4326.684063
4477.876768
4389.768426
4451.404389
4399.309729
4421.713606
4393.118299
4435.091734
4464.994419
4382.950048
4464.140871
4449.798498
4435.627039
4391.161613
4421.809438
4428.007702
4429.429247
4429.046215
4417.087134
4428.015758
4444.855422
4406.650504
4438.181485
4418.305153
4435.242280
4402.964864
4456.911556
4407.318798
4442.216563
4393.728817
4448.110513
4459.400899
4489.467277
4427.178698
4559.292794
4388.324973
4470.002106
4481.763557
4421.120218
4461.311402
4428.359321
4397.839279
4406.528004
4415.684958
4476.914370
4391.316933
4425.593106
4426.208412
4423.731390
4436.505079
4431.628372
4418.640478
4426.457025
4445.231984
4407.303007
4430.856006
4408.861600
4444.265230
4380.100346
4447.240739
4424.400434
4410.949566
4401.275799
4472.180245
4361.778063
4395.375511
4501.914941
4533.615740
4401.037086
4464.210497
4424.456765
4390.460637
4425.051652
4434.372246
4460.889266
4395.329967
4383.892073
4419.952299
4441.674896
4430.806630
4421.274961
4412.438340
4430.351397
4436.538103
4411.445524
4419.340171
4443.464901
4437.121125
4406.740911
4454.205416
4413.389201
4421.674824
4475.612708
4391.112216
4476.848084
4401.852524
4474.065884
4413.661861
4444.267160
4400.009870
4429.551923
4395.514703
4432.201450
4447.081406
4437.120169
4358.386820
4396.935952
4456.218565
4430.899021
4428.230642
4410.267053
4440.079817
4436.866868
4412.438186
4406.403133
4437.902258
4440.975813
4390.414294
4435.777685
4405.126799
4438.318584
4443.837304
4401.632269
4422.600252
4395.846977
4450.410105
4390.261438
4449.781552
4484.777631
4430.508354
4478.981153
4487.437678
4463.951338
4429.408870
4486.821132
4374.517515
4508.539571
4405.054368
4428.064702
4424.393072
4427.068869
4435.932248
4436.240917
4408.476098
4434.163352
4437.964801
4398.768763
4429.870599
4443.901676
4403.569332
4453.100626
4386.219462
4440.662521
4422.729663
4422.348222
4443.465271
4421.907800
4423.702681
4412.740761
4417.900709
4414.144967
4499.311757
4372.289908
4446.449973
4439.091723
4384.884460
4379.299116
4493.935524
4419.259883
4436.717495
4424.162731
4428.256974
4426.510629
4410.616781
4437.677434
4428.142235
4418.721548
4438.899650
4413.824258
4421.529870
4400.311884
4446.942153
4388.980983
4432.232861
4391.333467
4457.432259
4384.893550
4422.864201
4449.504041
4512.748030
4420.931800
4391.066871
4413.593091
4390.315741
4466.099054
4456.885690
4459.292655
4414.369865
4446.638172
4437.123178
4457.009969
4428.002012
4426.093868
4421.638060
4439.263579
4437.782201
4416.211512
4408.511289
4439.726199
4413.461524
4421.685331
4436.492296
4401.100045
4432.795410
4425.794829
4419.083859
4472.397315
4389.419561
4477.808310
4377.292994
4417.287837
4428.111401
4407.124437
4473.540599
4437.806347
4441.460436
4416.936551
4442.797790
4442.830747
4437.824020
4416.636791
4413.546298
4422.566106
4441.216501
4429.185883
4425.432821
4399.429027
4447.038291
4443.944401
4405.734979
4424.230389
4413.533478
4413.928407
4434.914419
4423.516395
4411.146156
4390.737152
4420.961480
4396.674028
4426.096048
4375.373380
4492.445669
4459.036828
4663.882516
4424.583155
4436.704764
4461.007133
4422.662895
4455.592746
4418.040002
4460.083339
4393.230136
4429.879457
4434.818131
4432.559382
4409.390956
4436.164922
4448.656557
4416.792954
4405.193405
4433.642259
4425.668609
4423.518527
4425.946105
4409.048448
4410.365982
4419.371947
4440.782640
4438.136554
4424.940377
4448.851549
4429.966089
4423.488336
4415.301676
4413.286794
4417.996772
4462.635261
4457.166212
4444.318476
4440.463089
4435.429446
4457.384014
4376.967520
4423.661143
4429.146183
4418.806996
4446.398011
4435.931800
4408.286018
4428.038374
4438.372253
4434.335332
4404.685252
4418.684573
4425.928661
4414.849337
4440.415952
4422.804547
4398.006896
4395.417365
4440.840365
4388.327138
4419.901704
4431.133267
4406.322824
4439.353384
4447.976396
4413.448894
4462.802874
4454.320072
4417.407481
4458.961746
4419.309443
4451.593498
4411.612915
4422.632132
4422.646839
4431.679305
4407.808340
4441.110268
4447.299683
4406.274769
4404.689781
4438.600713
4426.266626
4422.183721
4415.978114
4419.883212
4391.150497
4487.303775
4437.865544
4477.318715
4392.184486
4380.774349
4482.947935
4456.276932
4400.536137
4461.350859
4467.343988
4480.476627
4461.851637
4438.020095
4459.552286
4409.717605
4438.667792
4451.069938
4426.247721
4435.953297
4419.989472
4436.936753
4444.016746
4387.092028
4444.938623
4439.929342
4415.239941
4398.894735
4431.591400
4399.566856
4449.166994
4434.716396
4398.290257
4395.759383
4416.465245
4436.984885
4445.621279
4437.498923
4453.527821
4438.529240
4457.484147
4481.596266
4433.993181
4451.696240
4441.020685
4417.357658
4404.443246
4436.086269
4397.646714
4426.171427
4427.980442
4431.950735
4427.162250
4410.689853
4440.333293
4448.482681
4380.152832
4441.295385
4431.005593
4421.741547
4438.331983
4386.940597
4417.158930
4410.490277
4453.871410
4438.508072
4446.739107
4375.132826
4416.449406
4425.050340
4404.309070
4473.453480
4455.114862
4434.114590
4436.918037
4454.071710
4435.608923
4481.573117
4350.246536
4437.870613
4434.102193
4426.967779
4426.167189
4424.603406
4436.026067
4435.373879
4393.144970
4444.845520
4434.017835
4407.521610
4416.058756
4411.145262
4416.604335
4438.476691
4395.504372
4440.968232
4393.176063
4402.471934
4446.919131
4459.331794
4430.439053
4387.948575
4478.398786
4456.018502
4429.847825
4466.464188
4439.621396
4425.284460
4444.534753
4443.194111
4405.308060
4436.415152
4422.707500
4441.424702
4426.912320
4424.036872
4406.771482
4425.102876
4455.533201
4378.698648
4440.513405
4442.655820
4420.723406
4435.209245
4399.623020
4426.486070
4426.069362
4421.527117
4453.387707
4419.527511
4451.079075
4515.869631
4492.223069
4491.499078
4421.322459
4442.780906
4452.066942
4406.662379
4388.848389
4367.750895
4371.172471
4423.653590
4429.709343
4429.692328
4430.172852
4420.658009
4431.270175
4444.402948
4412.208136
4388.967309
4445.964642
4446.216607
4375.480611
4434.909504
4404.653325
4419.769456
4435.796432
4401.170094
4416.557982
4424.354005
4401.325553
4418.849849
4420.898303
4491.418763
4467.139099
4448.640715
4452.680319
4423.912210
4463.037331
4463.687936
4404.554740
4502.634647
4450.197942
4429.716042
4436.186855
4425.568232
4440.009759
4427.576828
4406.530246
4437.857863
4429.622830
4427.006624
4389.610036
4439.469569
4451.489353
4397.272456
4439.315602
4390.985461
4450.749711
4421.998204
4427.989635
4463.931998
4427.826624
4406.646863
4472.259807
4450.163808
4437.930902
4474.505751
4459.916990
4476.510479
4450.019553
4409.245292
4454.330877
4430.695500
4426.947426
4429.179629
4426.422353
4434.148571
4410.659017
4440.044857
4422.463425
4393.119865
4406.507313
4441.635633
4429.579245
4385.894264
4447.372930
4428.965680
4419.721992
4428.402744
4418.222841
4405.407502
4457.485673
4412.594109
4461.889326
4426.182793
4403.229519
4447.082368
4471.644526
4450.564883
4477.694003
4439.777645
4420.122899
4418.172798
4417.528271
4427.977098
4419.987574
4440.000075
4426.015216
4427.104329
4420.837771
4423.466754
4442.319140
4448.000409
4416.965064
4396.147294
4444.425498
4443.178078
4406.994070
4432.698642
4409.126735
4434.444193
4430.993543
4448.098422
4433.748885
4443.917903
4454.049544
4476.870424
4421.062420
4441.254569
4437.024946
4472.167000
4436.968128
4444.584044
4450.449644
4425.209711
4428.691360
4423.897702
4418.194067
4411.128793
4457.935698
4406.247242
4425.634087
4434.200408
4389.869780
4444.029910
4425.471880
4406.874931
4382.801313
4435.323488
4452.385373
4414.792617
4413.206343
4415.050691
4406.690352
4431.149507
4407.174820
4431.187509
4459.762121
4435.172288
4435.221110
4431.205949
4452.869709
4433.834301
4447.046285
4449.282828
4448.623041
4420.087360
4424.211332
4441.668160
4429.509608
4414.385085
4416.801872
4441.412449
4430.969419
4435.634667
4443.118307
4401.023372
4420.970303
4428.935600
4419.278795
4409.440101
4437.161524
4409.130211
4421.464418
4435.372059
4413.994735
4444.424230
4440.106597
4442.894072
4436.298127
4457.441530
4421.964732
4446.616607
4397.478458
4474.036858
4444.403577
4459.474776
4420.177166
4435.895956
4404.622948
4424.978692
4431.403179
4416.408695
4406.106639
4415.697375
4433.343473
4395.044423
4438.371275
4413.068594
4411.625058
4416.911605
4418.258780
4407.438698
4447.755847
4402.820495
4454.310449
4407.434100
4431.695526
4415.731303
4461.776815
4426.014285
4446.817621
4447.660531
4446.349812
4425.097011
4497.886426
4407.258009
4460.901985
4422.290124
4434.617112
4424.212381
4437.181727
4437.964081
4445.796680
4423.146616
4441.418350
4411.346035
4427.850880
4445.718048
4394.206869
4421.242126
4426.159567
4408.100067
4447.968901
4432.864999
4436.497875
4415.998223
4434.231070
4444.282306
4422.946522
4461.729261
4421.552936
4424.166881
4440.927095
4454.734811
4461.338016
4447.018739
4410.261368
4458.471364
4426.222185
4425.898102
4416.505175
4424.428975
4391.584989
4448.316414
4414.017997
4427.094359
4408.707503
4431.667112
4387.147129
4425.438589
4442.815365
4434.771430
4407.935429
4424.426426
4411.824694
4436.642363
4430.596054
4423.677525
4425.531948
4422.193843
4434.884887
4436.904080
4459.513061
4435.006301
4435.979039
4439.573186
4414.924134
4456.529697
4459.476424
4423.571429
4419.086385
4432.678928
4437.416278
4417.699482
4443.183458
4415.420607
4463.858318
4387.275786
4452.383782
4389.761694
4450.710134
4379.173490
4440.668139
4417.364052
4433.083772
4413.976689
4413.322168
4455.458874
4414.307960
4423.023543
4447.104689
4432.687900
4419.159118
4432.454467
4443.773781
4447.667161
4446.286599
4445.976552
4451.144087
4456.679073
4420.899326
4424.610836
4432.173418
4389.464637
4429.054568
4408.023150
4423.627150
4440.279925
4437.268165
4440.234994
4438.339770
4407.153470
4430.767157
4456.212437
4431.209506
4417.038845
4439.606591
4445.782514
4429.700207
4400.169670
4449.793175
4433.108876
4397.589795
4439.096876
4437.157067
4467.521469
4387.981441
4455.949309
4422.819918
4465.138274
4458.787825
4429.144054
4429.443867
4424.498640
4426.179517
4445.158026
4433.481484
4440.181689
4411.758114
4414.178580
4432.262636
4458.137480
4442.883516
4405.533701
4379.235680
4409.538571
4466.076415
4413.000248
4443.795361
4403.571637
4437.060026
4432.688976
4446.544364
4447.606962
4473.144921
4392.244431
4476.803816
4471.171140
4472.527429
4425.525025
4458.872154
4481.623660
4424.087200
4425.118617
4422.832716
4420.457471
4402.186819
4441.163076
4427.179672
4415.665585
4421.199292
4442.249725
4391.243890
4389.928288
4458.962281
4459.909872
4411.000508
4442.688159
4425.565443
4407.381037
4441.194384
4440.842179
4386.778041
4453.417204
4400.817427
4445.347782
4460.309653
4445.478179
4398.153322
4455.821508
4522.451214
4430.821077
4469.612226
4428.639513
4433.316425
4441.390379
4431.482665
4431.068237
4423.198315
4427.364683
4415.910859
4446.163021
4433.497828
4450.713651
4451.520687
4377.885989
4411.830927
4428.098967
4400.394481
4440.955993
4442.976318
4415.868413
4436.327536
4435.970186
4419.248853
4435.840639
4432.811232
4447.969759
4440.774792
4506.813252
4433.962534
4429.589309
4427.315060
4474.610486
4439.589546
4428.967407
4426.550403
4418.179909
4435.514206
4417.189433
4422.136131
4443.156188
4409.131198
4398.552373
4420.700123
4421.074825
4442.233921
4455.108983
4370.155552
4455.818964
4444.912515
4435.912758
4433.636763
4445.855450
4442.814271
4450.852007
4430.266055
4451.126692
4449.564668
4443.731297
4451.411885
4439.266868
4511.854464
4408.397306
4478.337512
4440.115928
4418.274450
4447.678453
4447.593981
4420.725477
4440.712570
4441.371830
4411.375778
4451.215861
4430.890340
4426.441508
4424.622186
4408.250172
4439.432675
4460.442808
4441.375546
4400.971127
4457.621716
4409.406966
4408.799348
4454.461524
4442.871047
4437.353112
4447.004690
4451.759863
4451.150484
4469.161489
4457.554109
4447.915271
4453.708440
4475.710593
4429.258115
4436.037546
4425.764757
4411.894695
4442.383575
4405.400077
4396.592720
4449.115231
4425.527116
4438.752265
4407.771648
4456.303952
4423.591465
4424.659251
4450.494946
4401.290656
4429.490069
4436.178939
4446.130110
4418.355595
4437.475253
4433.315229
4440.375588
4416.986564
4454.354570
4455.197833
4444.644343
4470.441114
4483.063216
4423.890817
4470.187762
4429.467996
4435.374410
4430.254715
4424.072718
4441.263290
4414.224055
4446.298986
4403.364262
4385.331396
4466.839785
4410.028805
4457.061473
4439.814543
4405.351508
4386.104408
4441.750382
4457.897860
4407.105967
4440.027799
4437.551973
4433.268024
4459.799655
4441.988948
4426.633068
4461.610777
4428.595739
4456.819944
4447.438676
4458.976628
4463.894607
4459.467768
4439.509659
4428.994340
4424.701041
4455.207883
4404.621120
4460.165305
4443.803547
4437.719674
4446.855492
4407.176354
4410.412980
4395.334745
4454.686431
4453.777550
4448.471299
4436.870947
4413.937809
4450.547015
4423.751019
4428.039492
4441.104279
4435.966507
4427.779757
4448.903740
4438.549711
4439.895023
4450.032480
4450.127729
4467.863678
4463.082294
4454.562169
4434.283698
4423.965446
4416.768178
4424.972233
4430.167949
4443.777923
4399.779660
4447.099946
4419.064488
4439.947013
4453.833529
4449.279934
4449.051485
4457.308653
4381.599581
4456.083520
4448.270159
4448.412533