# vtk DataFile Version 2.0
mfree iwf
ASCII

DATASET UNSTRUCTURED_GRID
POINTS 6231 float
0.000000 0.000300 0.000000
0.000000 0.000310 0.000000
0.000000 0.000320 0.000000
0.000000 0.000330 0.000000
0.000000 0.000340 0.000000
0.000000 0.000350 0.000000
0.000001 0.000360 0.000000
0.000001 0.000370 0.000000
0.000001 0.000380 0.000000
0.000001 0.000390 0.000000
0.000001 0.000400 0.000000
0.000001 0.000410 0.000000
0.000001 0.000420 0.000000
0.000001 0.000430 0.000000
0.000001 0.000440 0.000000
0.000002 0.000450 0.000000
0.000002 0.000460 0.000000
0.000002 0.000471 0.000000
0.000002 0.000480 0.000000
0.000002 0.000492 0.000000
0.000006 0.000501 0.000000
0.000480 0.000783 0.000000
0.000530 0.000847 0.000000
0.000491 0.000798 0.000000
0.000540 0.000857 0.000000
0.000557 0.000871 0.000000
0.000601 0.000895 0.000000
0.000608 0.000897 0.000000
0.000621 0.000897 0.000000
0.000634 0.000900 0.000000
0.000667 0.000911 0.000000
0.000010 0.000300 0.000000
0.000010 0.000310 0.000000
0.000010 0.000320 0.000000
0.000010 0.000330 0.000000
0.000010 0.000340 0.000000
0.000010 0.000350 0.000000
0.000011 0.000360 0.000000
0.000011 0.000370 0.000000
0.000011 0.000380 0.000000
0.000011 0.000390 0.000000
0.000011 0.000400 0.000000
0.000011 0.000410 0.000000
0.000011 0.000420 0.000000
0.000011 0.000430 0.000000
0.000011 0.000440 0.000000
0.000012 0.000451 0.000000
0.000012 0.000460 0.000000
0.000012 0.000472 0.000000
0.000013 0.000478 0.000000
0.000010 0.000492 0.000000
0.000013 0.000498 0.000000
0.000576 0.000876 0.000000
0.000588 0.000882 0.000000
0.000596 0.000886 0.000000
0.000603 0.000887 0.000000
0.000620 0.000888 0.000000
0.000631 0.000891 0.000000
0.000645 0.000894 0.000000
0.000656 0.000899 0.000000
0.000661 0.000900 0.000000
0.000663 0.000907 0.000000
0.000020 0.000300 0.000000
0.000020 0.000310 0.000000
0.000020 0.000320 0.000000
0.000020 0.000330 0.000000
0.000020 0.000340 0.000000
0.000020 0.000351 0.000000
0.000020 0.000360 0.000000
0.000021 0.000370 0.000000
0.000020 0.000380 0.000000
0.000021 0.000390 0.000000
0.000020 0.000400 0.000000
0.000022 0.000410 0.000000
0.000020 0.000420 0.000000
0.000022 0.000431 0.000000
0.000020 0.000440 0.000000
0.000023 0.000451 0.000000
0.000021 0.000460 0.000000
0.000022 0.000470 0.000000
0.000021 0.000481 0.000000
0.000024 0.000494 0.000000
0.000020 0.000497 0.000000
0.000551 0.000853 0.000000
0.000573 0.000870 0.000000
0.000583 0.000876 0.000000
0.000589 0.000875 0.000000
0.000601 0.000874 0.000000
0.000613 0.000883 0.000000
0.000639 0.000888 0.000000
0.000653 0.000893 0.000000
0.000664 0.000888 0.000000
0.000672 0.000889 0.000000
0.000030 0.000300 0.000000
0.000030 0.000310 0.000000
0.000030 0.000320 0.000000
0.000030 0.000330 0.000000
0.000030 0.000340 0.000000
0.000031 0.000350 0.000000
0.000030 0.000360 0.000000
0.000030 0.000370 0.000000
0.000031 0.000380 0.000000
0.000031 0.000390 0.000000
0.000031 0.000400 0.000000
0.000031 0.000411 0.000000
0.000031 0.000420 0.000000
0.000032 0.000430 0.000000
0.000031 0.000440 0.000000
0.000030 0.000450 0.000000
0.000031 0.000459 0.000000
0.000036 0.000473 0.000000
0.000030 0.000478 0.000000
0.000033 0.000488 0.000000
0.000032 0.000497 0.000000
0.000063 0.000500 0.000000
0.000570 0.000863 0.000000
0.000588 0.000862 0.000000
0.000613 0.000874 0.000000
0.000623 0.000871 0.000000
0.000625 0.000882 0.000000
0.000633 0.000877 0.000000
0.000643 0.000879 0.000000
0.000652 0.000881 0.000000
0.000674 0.000881 0.000000
0.000040 0.000300 0.000000
0.000040 0.000310 0.000000
0.000040 0.000320 0.000000
0.000040 0.000330 0.000000
0.000040 0.000340 0.000000
0.000040 0.000351 0.000000
0.000040 0.000360 0.000000
0.000041 0.000370 0.000000
0.000041 0.000380 0.000000
0.000040 0.000390 0.000000
0.000042 0.000399 0.000000
0.000041 0.000410 0.000000
0.000042 0.000420 0.000000
0.000040 0.000431 0.000000
0.000042 0.000439 0.000000
0.000043 0.000450 0.000000
0.000043 0.000460 0.000000
0.000037 0.000469 0.000000
0.000045 0.000478 0.000000
0.000043 0.000496 0.000000
0.000040 0.000498 0.000000
0.000453 0.000615 0.000000
0.000581 0.000858 0.000000
0.000597 0.000864 0.000000
0.000606 0.000862 0.000000
0.000610 0.000869 0.000000
0.000632 0.000866 0.000000
0.000655 0.000873 0.000000
0.000659 0.000864 0.000000
0.000664 0.000879 0.000000
0.000675 0.000872 0.000000
0.000050 0.000300 0.000000
0.000050 0.000310 0.000000
0.000050 0.000319 0.000000
0.000050 0.000331 0.000000
0.000050 0.000340 0.000000
0.000051 0.000350 0.000000
0.000051 0.000360 0.000000
0.000049 0.000370 0.000000
0.000052 0.000379 0.000000
0.000050 0.000390 0.000000
0.000053 0.000400 0.000000
0.000048 0.000411 0.000000
0.000053 0.000420 0.000000
0.000051 0.000430 0.000000
0.000054 0.000440 0.000000
0.000047 0.000451 0.000000
0.000055 0.000458 0.000000
0.000053 0.000470 0.000000
0.000056 0.000483 0.000000
0.000049 0.000488 0.000000
0.000050 0.000498 0.000000
0.000563 0.000867 0.000000
0.000529 0.000837 0.000000
0.000595 0.000855 0.000000
0.000613 0.000854 0.000000
0.000625 0.000860 0.000000
0.000641 0.000868 0.000000
0.000636 0.000856 0.000000
0.000648 0.000865 0.000000
0.000666 0.000867 0.000000
0.000676 0.000861 0.000000
0.000060 0.000300 0.000000
0.000060 0.000310 0.000000
0.000060 0.000321 0.000000
0.000060 0.000330 0.000000
0.000062 0.000340 0.000000
0.000059 0.000350 0.000000
0.000062 0.000360 0.000000
0.000060 0.000370 0.000000
0.000063 0.000381 0.000000
0.000058 0.000390 0.000000
0.000063 0.000400 0.000000
0.000060 0.000409 0.000000
0.000064 0.000419 0.000000
0.000057 0.000430 0.000000
0.000066 0.000440 0.000000
0.000060 0.000449 0.000000
0.000066 0.000460 0.000000
0.000055 0.000472 0.000000
0.000064 0.000475 0.000000
0.000068 0.000486 0.000000
0.000058 0.000496 0.000000
0.000555 0.000862 0.000000
0.000572 0.000854 0.000000
0.000593 0.000845 0.000000
0.000604 0.000851 0.000000
0.000620 0.000846 0.000000
0.000630 0.000846 0.000000
0.000658 0.000851 0.000000
0.000648 0.000854 0.000000
0.000666 0.000855 0.000000
0.000677 0.000852 0.000000
0.000070 0.000300 0.000000
0.000070 0.000310 0.000000
0.000070 0.000319 0.000000
0.000070 0.000330 0.000000
0.000071 0.000340 0.000000
0.000068 0.000351 0.000000
0.000075 0.000356 0.000000
0.000066 0.000371 0.000000
0.000074 0.000376 0.000000
0.000069 0.000390 0.000000
0.000074 0.000400 0.000000
0.000068 0.000411 0.000000
0.000075 0.000421 0.000000
0.000068 0.000430 0.000000
0.000075 0.000439 0.000000
0.000066 0.000452 0.000000
0.000077 0.000459 0.000000
0.000073 0.000470 0.000000
0.000076 0.000486 0.000000
0.000068 0.000496 0.000000
0.000076 0.000496 0.000000
0.000453 0.000600 0.000000
0.000561 0.000850 0.000000
0.000584 0.000849 0.000000
0.000611 0.000838 0.000000
0.000623 0.000854 0.000000
0.000639 0.000843 0.000000
0.000647 0.000850 0.000000
0.000650 0.000839 0.000000
0.000667 0.000845 0.000000
0.000677 0.000842 0.000000
0.000080 0.000300 0.000000
0.000080 0.000310 0.000000
0.000080 0.000321 0.000000
0.000081 0.000330 0.000000
0.000080 0.000341 0.000000
0.000081 0.000349 0.000000
0.000076 0.000364 0.000000
0.000083 0.000369 0.000000
0.000081 0.000384 0.000000
0.000078 0.000391 0.000000
0.000087 0.000396 0.000000
0.000079 0.000408 0.000000
0.000084 0.000417 0.000000
0.000079 0.000430 0.000000
0.000087 0.000445 0.000000
0.000077 0.000447 0.000000
0.000086 0.000463 0.000000
0.000074 0.000470 0.000000
0.000087 0.000473 0.000000
0.000085 0.000482 0.000000
0.000084 0.000495 0.000000
0.000546 0.000856 0.000000
0.000522 0.000840 0.000000
0.000596 0.000835 0.000000
0.000605 0.000843 0.000000
0.000620 0.000836 0.000000
0.000630 0.000834 0.000000
0.000639 0.000833 0.000000
0.000658 0.000837 0.000000
0.000667 0.000835 0.000000
0.000678 0.000832 0.000000
0.000090 0.000300 0.000000
0.000090 0.000310 0.000000
0.000090 0.000320 0.000000
0.000090 0.000329 0.000000
0.000090 0.000339 0.000000
0.000092 0.000351 0.000000
0.000089 0.000359 0.000000
0.000092 0.000368 0.000000
0.000088 0.000378 0.000000
0.000092 0.000388 0.000000
0.000086 0.000407 0.000000
0.000094 0.000408 0.000000
0.000089 0.000425 0.000000
0.000096 0.000426 0.000000
0.000088 0.000436 0.000000
0.000097 0.000455 0.000000
0.000087 0.000453 0.000000
0.000097 0.000471 0.000000
0.000106 0.000480 0.000000
0.000089 0.000495 0.000000
0.000094 0.000495 0.000000
0.000453 0.000628 0.000000
0.000557 0.000844 0.000000
0.000544 0.000844 0.000000
0.000576 0.000845 0.000000
0.000612 0.000827 0.000000
0.000633 0.000826 0.000000
0.000649 0.000830 0.000000
0.000657 0.000826 0.000000
0.000668 0.000825 0.000000
0.000677 0.000822 0.000000
0.000100 0.000300 0.000000
0.000100 0.000310 0.000000
0.000100 0.000320 0.000000
0.000101 0.000331 0.000000
0.000101 0.000340 0.000000
0.000099 0.000349 0.000000
0.000101 0.000360 0.000000
0.000100 0.000372 0.000000
0.000102 0.000381 0.000000
0.000100 0.000392 0.000000
0.000100 0.000399 0.000000
0.000103 0.000409 0.000000
0.000100 0.000418 0.000000
0.000100 0.000435 0.000000
0.000110 0.000444 0.000000
0.000097 0.000445 0.000000
0.000107 0.000460 0.000000
0.000098 0.000467 0.000000
0.000095 0.000481 0.000000
0.000106 0.000491 0.000000
0.000101 0.000494 0.000000
0.000494 0.000803 0.000000
0.000500 0.000810 0.000000
0.000518 0.000835 0.000000
0.000604 0.000828 0.000000
0.000622 0.000824 0.000000
0.000630 0.000817 0.000000
0.000650 0.000820 0.000000
0.000642 0.000813 0.000000
0.000665 0.000818 0.000000
0.000677 0.000812 0.000000
0.000110 0.000300 0.000000
0.000110 0.000310 0.000000
0.000110 0.000320 0.000000
0.000110 0.000329 0.000000
0.000110 0.000339 0.000000
0.000111 0.000351 0.000000
0.000111 0.000359 0.000000
0.000110 0.000369 0.000000
0.000111 0.000378 0.000000
0.000110 0.000388 0.000000
0.000112 0.000400 0.000000
0.000111 0.000412 0.000000
0.000116 0.000423 0.000000
0.000107 0.000426 0.000000
0.000112 0.000434 0.000000
0.000106 0.000449 0.000000
0.000115 0.000461 0.000000
0.000111 0.000471 0.000000
0.000116 0.000480 0.000000
0.000111 0.000493 0.000000
0.000119 0.000492 0.000000
0.000465 0.000738 0.000000
0.000453 0.000649 0.000000
0.000553 0.000837 0.000000
0.000579 0.000835 0.000000
0.000571 0.000828 0.000000
[...]
POINT_DATA 6231
SCALARS density float 1
LOOKUP_TABLE default
4407.279607
4425.115706
4421.560644
4422.880747
4426.347533
4425.636588
4424.130310
4426.351079
4430.037256
4428.682807
4426.169178
4431.010623
4428.259764
4429.568246
4430.678175
4440.182711
4423.221402
4431.677769
4412.504386
4423.825773
4411.202250
4429.374354
4426.759863
4435.199435
4441.096959
4417.686139
4403.947560
4436.371856
4447.682232
4450.129839
4424.632332
4412.330503
4424.947338
4423.749746
4424.230108
4424.448025
4426.178273
4425.624137
4421.584791
4424.990458
4429.350154
4424.418744
4430.856276
4425.174962
4437.274140
4416.443557
4427.358998
4409.909292
4444.292874
4461.049090
4460.355962
4416.316504
4404.474961
4397.422758
4426.932381
4498.679129
4393.015280
4406.823253
4424.839751
4419.683268
4462.349868
4458.356404
4418.309685
4427.984113
4422.790197
4429.341681
4423.365609
4422.980414
4429.888284
4440.524695
4422.583707
4429.502709
4428.202201
4433.784421
4417.958044
4439.209695
4414.201942
4476.672675
4399.285562
4453.664272
4351.634398
4449.579893
4420.708453
4415.899406
4432.354190
4408.024385
4537.647049
4343.772932
4369.009861
4433.219157
4413.300806
4404.002532
4400.719691
4422.238903
4426.188865
4425.165636
4426.597831
4431.929345
4438.524660
4420.109514
4419.295860
4420.786773
4438.626849
4411.806534
4437.867427
4417.240490
4447.067960
4402.960949
4431.561355
4389.558665
4459.324263
4367.818610
4557.306325
4370.569691
4431.728172
4459.725905
4425.532412
4485.640558
4355.911435
4489.701661
4449.952105
4388.327755
4502.742174
4455.004089
4428.215049
4431.082494
4433.983086
4435.671497
4423.212783
4424.234049
4431.333377
4444.843093
4424.609855
4435.620842
4409.334621
4451.362199
4402.475003
4444.388945
4413.287539
4450.315366
4386.546198
4508.937343
4307.811235
4419.884820
4383.925435
4496.508258
4420.986676
4384.601333
4453.481736
4469.652536
4451.557209
4378.959140
4483.412157
4422.420294
4427.272839
4432.459213
4428.795528
4418.512422
4434.584573
4432.641800
4441.544612
4409.128697
4433.212650
4403.158960
4442.566030
4421.811157
4438.185622
4404.918008
4459.134325
4363.308890
4480.693647
4358.471119
4477.231027
4361.737309
4536.175949
4383.120375
4441.225390
4424.901064
4457.978240
4379.376984
4416.883453
4439.081204
4390.485378
4393.700162
4405.503245
4413.328651
4424.833851
4439.822678
4431.316391
4444.978264
4410.377337
4450.817051
4403.892030
4452.971688
4417.037643
4447.539731
4408.999900
4443.287849
4423.516030
4435.480749
4421.680275
4470.590327
4402.044023
4519.436201
4372.871008
4481.248447
4431.949140
4418.396536
4388.277122
4415.662692
4459.055618
4459.360553
4418.276390
4404.416962
4436.900415
4430.993386
4426.288452
4426.116784
4433.781506
4412.641680
4431.234919
4427.887009
4437.540218
4424.563291
4449.519580
4399.804576
4440.684563
4397.641274
4427.819346
4413.777332
4435.961509
4438.171075
4455.852828
4438.209132
4458.727621
4448.408765
4412.801647
4388.167632
4585.156628
4457.300008
4441.517678
4464.017096
4466.277115
4417.820273
4464.883987
4426.305811
4447.193982
4413.502403
4426.193420
4430.080835
4422.508236
4433.287406
4419.975575
4429.871364
4415.108066
4446.140286
4454.157944
4443.581155
4400.746800
4437.607888
4404.289443
4442.682306
4467.941201
4390.811737
4453.874836
4453.557133
4357.773281
4465.995454
4411.581399
4434.573917
4414.848542
4424.572276
4432.377335
4386.103806
4454.321753
4426.090198
4420.108871
4433.622666
4435.730405
4422.714344
4427.392790
4436.117070
4423.138886
4416.390117
4435.852593
4415.826770
4441.561109
4413.869317
4420.434489
4456.083502
4412.149007
4428.526384
4470.369467
4416.915651
4377.247795
4442.233683
4436.988270
4424.781137
4426.447864
4417.434196
4461.520382
4434.256440
4422.725169
4483.383156
4422.502584
4391.234953
4445.043846
4449.360747
4420.522909
4420.086332
4431.795829
4433.597959
4421.963151
4431.599699
4433.753632
4433.227918
4418.462022
4411.536518
4431.005292
4447.002786
4442.102487
4428.720529
4420.913139
4385.592620
4447.602151
4448.217698
4417.308052
4471.007915
4413.796496
4436.880889
4420.482361
4425.587655
4427.788248
4422.509139
4407.209870
4468.946522
4398.333875
4392.512934
4474.811606
4440.967610
4421.423154
4433.479553
4427.148042
4427.826042
4441.901685
4414.250978
4415.818951
4446.387841
4430.621637
4440.444506
4414.267444
4407.062267
4456.389734
4399.266494
4436.880374
4432.496510
4443.913113
4462.906971
4388.234726
4467.207841
4398.778633
4412.205975
4426.715575
4449.663854
4440.289788
4386.839763
4435.531055
4463.564118
4460.725751
4424.311923
4425.054782
4447.968572
4427.715352
4424.222684
4434.538051
4411.881124
4443.753289
4439.735010
4405.706206
4427.689327
4413.100288
4447.698373
4442.126792
4420.567169
4428.072504
4439.261231
4415.751608
4373.964410
4436.228819
4397.101609
4416.710445
4437.678840
4389.965218
4444.770738
4417.042393
4423.172504
4448.507869
4457.587762
4385.127713
4339.024026
4452.405428
4394.272523
4412.299683
4433.078466
4437.086518
4431.864363
4427.152979
4429.018832
4417.075393
4425.782342
4442.557542
4432.533476
4408.283874
4398.980458
4430.888871
4446.505956
4417.784867
4420.720128
4447.858561
4417.659584
4443.710259
4500.804373
4418.465904
4422.697704
4435.848219
4405.846840
4420.458490
4437.881203
4421.633869
4424.664327
4482.270451
4474.223654
4476.423942
4447.141530
4433.807726
4435.691509
4421.699504
4435.613785
4418.614821
4435.431080
4440.431720
4401.481562
4440.313425
4425.497023
4446.976156
4427.843747
4416.796752
4416.829281
4439.216646
4377.714492
4415.151094
4505.261600
4563.488938
4388.068117
4379.793075
4416.505106
4418.257744
4468.203029
4457.359479
4384.962073
4448.329331
4419.331210
4410.325148
4405.726462
4449.469253
4433.689408
4437.098425
4438.136587
4430.256288
4427.304599
4416.842969
4420.892661
4441.658732
4429.407640
4403.551764
4439.969058
4411.605132
4446.001959
4405.925075
4450.866389
4431.173475
4486.307925
4356.881625
4327.860651
4504.417658
4396.000761
4419.163020
4436.636013
4410.881238
4477.226400
4459.068358
4414.980131
4420.722297
4397.691717
4417.840104
4410.952622
4432.578326
4427.076675
4422.344282
4424.499305
4441.054445
4429.961008
4423.992736
4420.320594
4430.118548
4441.255700
4428.369662
4406.850878
4451.630066
4410.143098
4431.600482
4425.177064
4395.951152
4498.361095
4488.647676
4416.055554
4402.454195
4428.889412
4443.127383
4431.288984
4404.108690
4435.375958
4446.384771
4422.464804
4405.616773
4442.527137
4426.166509
4433.073555
4429.907405
4445.409533
4435.701258
4420.604526
4428.425192
4436.628022
4428.660856
4425.259499
4414.876395
4432.894820
4443.801868
4410.508102
4454.519316
4409.840699
4427.190289
4419.049551
4468.847398
4337.773074
4366.637343
4427.825242
4427.132582
4429.471213
4400.065351
4396.594495
4435.075068
4438.532296
4438.157741
4463.969081
4422.030816
4430.574575
4436.511140
4429.758473
4415.134828
4434.510056
4440.399246
4433.244149
4420.174913
4430.525032
4431.359333
4442.479061
4417.050618
4426.466121
4423.682017
4430.851800
4405.773875
4479.587837
4332.889391
4469.340942
4387.080303
4447.981341
4395.696149
4410.906178
4422.000025
4445.118353
4463.705046
4395.666475
4456.312917
4465.743429
4404.638333
4435.472503
4426.415988
4431.430307
4422.503994
4442.110047
4442.694312
4418.512283
4428.870943
4431.033348
4432.619490
4406.408318
4432.294344
4418.689801
4440.650203
4411.726770
4441.697022
4406.282508
4422.706488
4413.082226
4481.705076
4410.400038
4549.049186
4390.706244
4460.898704
4444.362838
4424.591239
4438.335176
4435.120294
4408.874657
4409.556765
4420.752157
4447.087876
4394.983472
4430.530863
4431.500684
4424.626212
4411.466710
4440.544129
4439.541885
4413.860578
4432.002591
4427.144401
4432.241182
4413.909402
4439.601589
4397.488105
4439.697151
4421.206060
4446.082946
4437.068942
4471.332265
4373.405027
4422.730283
4503.058699
4415.003077
4420.595229
4450.579587
4416.206159
4371.187095
4419.377435
4433.411126
4464.545683
4410.517477
4377.344383
4429.221125
4435.113468
4431.203134
4436.134407
4437.981409
4412.375318
4431.245467
4435.298914
4403.445534
4450.678014
4409.731598
4435.090803
4443.763635
4419.644032
4400.813355
4445.271393
4387.994779
4462.863147
4378.416109
4469.487595
4419.847921
4435.889291
4413.656853
4388.899569
4427.749715
4438.073694
4413.799832
4457.255059
4337.974140
4390.403833
4451.714122
4429.536183
4428.420134
4423.089184
4431.316366
4402.229339
4447.482128
4420.185257
4438.255273
4439.831995
4413.320225
4436.321694
4414.702949
4432.874169
4440.148737
4439.364058
4452.931328
4407.750990
4391.924027
4431.423072
4449.218665
4422.076699
4423.847428
4464.694552
4467.112985
4411.694616
4436.760591
4509.564029
4382.224613
4512.708210
4359.695130
4439.995879
4431.022596
4432.530721
4431.617881
4433.393003
4436.173542
4439.243788
4402.857861
4410.500548
4432.894044
4405.315264
4432.054251
4417.229535
4404.068271
4456.867023
4406.169888
4404.350960
4442.229573
4437.952608
4408.838973
4418.380092
4429.844314
4431.751772
4460.276157
4417.243439
4451.012341
4445.285045
4412.369317
4357.049676
4464.950951
4445.483507
4440.859548
4428.767255
4426.052716
4426.095750
4413.848496
4421.917223
4408.271044
4458.403235
4440.531592
4403.408823
4448.798084
4388.330217
4459.882049
4412.468939
4421.901562
4409.574681
4447.485314
4404.610696
4448.737838
4443.653263
4504.894307
4418.666966
4423.169386
4425.466454
4349.993889
4445.320908
4444.540038
4475.492095
4397.752376
4450.257036
4431.359408
4462.166843
4433.050371
4423.513280
4438.219082
4436.658426
4433.402200
4444.337630
4395.639902
4411.616690
4420.468884
4443.041430
4433.435650
4441.900762
4430.795512
4411.884218
4434.165024
4445.011916
4378.859969
4473.951198
4363.549484
4418.979829
4428.429990
4407.884653
4452.814930
4420.530352
4401.732317
4423.874150
4422.775186
4437.921111
4426.837372
4408.243935
4413.297099
4425.755724
4430.291994
4423.431532
4414.908111
4415.810907
4422.270796
4438.198399
4430.506127
4440.431660
4387.909774
4428.630389
4392.141021
4431.973016
4429.952842
4416.174166
4413.062062
4439.093539
4442.501423
4402.239187
4454.876986
4413.015738
4681.980407
4483.459963
4375.993721
4454.134190
4437.742919
4442.263728
4433.915642
4493.143471
4402.753720
4441.477888
4428.112789
4438.297911
4425.857673
4436.961879
4451.672930
4412.592247
4442.800475
4392.315095
4425.668124
4441.628466
4425.010414
4440.815713
4411.443592
4430.429884
4420.898686
4451.464695
4397.437676
4471.800992
4418.644749
4432.176559
4418.838101
4415.388903
4412.379616
4436.269288
4458.059808
4444.806246
4426.098497
4427.571325
4436.384345
4375.068738
4430.051277
4430.069548
4425.631383
4425.163950
4417.594196
4422.577090
4435.161500
4415.289132
4452.739076
4424.443300
4412.195553
4393.381401
4453.174278
4431.402806
4439.916270
4420.224510
4437.479002
4427.024132
4430.155700
4430.665911
4429.089073
4405.778399
4377.801735
4415.508059
4399.616859
4462.912560
4435.149467
4419.000836
4446.862577
4406.897920
4443.568690
4416.148395
4429.389814
4424.347615
4437.511193
4443.696080
4428.121850
4443.894155
4400.742284
4445.383101
4390.359194
4445.044785
4454.187099
4397.524201
4424.597856
4401.216160
4461.226887
4396.741174
4406.864945
4366.283697
4383.461755
4469.535173
4457.149836
4408.186664
4429.668262
4427.616242
4439.856334
4451.122698
4431.705181
4444.017753
4425.283637
4437.603421
4454.130756
4432.939067
4435.286264
4415.983490
4421.647652
4422.369239
4420.694546
4441.285384
4408.663667
4441.790087
4405.228494
4412.084091
4430.682108
4449.005546
4408.572899
4427.394341
4428.798747
4415.030537
4494.140030
4458.716808
4437.984185
4446.271007
4509.260845
4433.845103
4416.260727
4476.068364
4460.479481
4399.634501
4430.880696
4392.425660
4428.123176
4411.105292
4428.072355
4430.853700
4438.117773
4441.745642
4438.130368
4419.486044
4446.751530
4400.584106
4450.194088
4428.982641
4426.753464
4418.820222
4412.519229
4446.490782
4410.971314
4448.477401
4385.973313
4447.992220
4390.188400
4369.106426
4433.679260
4442.292561
4458.976354
4459.606233
4448.729371
4399.756223
4441.918122
4422.759625
4465.671180
4332.057614
4423.094616
4432.223702
4428.993089
4429.348587
4409.020655
4434.780928
4434.571341
4398.544320
4454.664053
4393.635849
4418.635923
4444.974473
4431.662466
4419.516769
4436.310097
4422.966557
4441.692336
4409.700454
4384.262609
4474.273653
4469.397867
4451.226832
4399.177439
4387.817274
4446.041402
4413.017507
4400.552479
4395.884240
4437.002345
4454.410354
4449.318394
4422.588979
4441.904369
4430.157027
4434.052190
4445.102748
4431.023650
4423.693534
4407.897811
4436.258596
4413.409364
4445.710267
4387.969811
4456.903564
4408.882890
4428.478969
4383.033795
4442.215031
4448.441372
4467.832329
4346.292511
4473.449421
4460.681462
4469.144728
4490.901674
4431.804226
4470.938944
4449.535332
4427.723037
4396.673410
4361.063961
4397.988339
4436.655172
4432.291953
4422.344662
4424.141786
4409.403409
4423.217221
4437.898133
4403.917503
4419.445805
4399.498260
4449.843299
4402.537058
4439.126728
4386.616372
4471.867195
4416.121290
4429.851664
4378.137787
4449.280451
4299.883047
4493.871232
4512.473036
4423.386776
4483.541734
4462.636052
4424.137849
4430.047267
4415.964747
4494.879528
4371.551896
4481.057239
4448.469371
4424.268811
4433.145265
4442.150661
4433.070758
4436.474502
4431.650103
4421.663455
4437.371095
4462.852903
4408.092266
4389.562885
4435.863950
4429.110528
4413.843391
4402.942930
4463.977685
4375.099674
4466.750952
4458.066952
4508.593773
4432.302005
4423.722704
4430.188384
4452.637642
4410.810385
4424.382250
4448.441874
4441.946744
4398.206649
4379.508204
4455.636726
4422.444670
4433.774883
4407.084633
4429.899786
4423.289629
4442.032803
4417.350559
4387.908992
4378.029396
4458.602472
4449.137217
4434.096400
4403.505276
4452.293681
4432.839155
4430.112767
4449.669585
4442.849610
4447.196372
4472.540621
4667.181176
4486.318716
4414.942202
4437.137662
4431.117279
4459.421038
4442.056644
4452.525946
4448.268612
4440.080821
4416.737845
4424.267089
4436.703406
4429.715593
4435.530074
4401.830407
4402.816105
4450.234868
4456.080723
4454.792930
4409.716053
4391.722887
4413.538551
4445.413416
4428.568515
4382.903630
4432.333315
4426.716946
4408.184716
4421.352360
4426.580184
4398.877317
4424.703997
4445.867486
4417.800483
4460.435166
4442.981226
4455.042134
4425.064437
4449.283019
4442.523626
4409.831213
4424.652316
4426.126829
4406.325885
4421.750590
4448.407578
4415.362764
4399.045384
4451.320716
4405.087806
4451.989264
4422.014544
4431.559908
4418.297310
4438.795065
4450.847691
4441.669731
4385.188510
4430.254013
4468.560846
4459.636364
4427.715042
4454.144133
4476.304812
4419.906553
4433.126732
4414.075348
4458.704229
4388.378159
4374.415952
4417.984252
4399.586418
4424.774280
4417.289698
4447.407830
4434.427900
4418.792742
4428.462414
4428.916188
4417.233704
4426.073673
4436.022276
4416.194671
4413.631782
4426.189106
4394.128197
4452.797728
4401.877223
4441.203818
4341.463825
4453.303162
4492.945163
4409.068793
4445.282211
4442.043601
4457.217317
4448.974979
4467.552426
4461.560829
4468.625459
4460.733273
4471.328145
4405.306573
4421.012980
4433.683045
4407.145354
4423.407496
4418.224362
4406.330356
4420.257082
4416.639245
4432.002571
4402.061487
4410.735545
4432.768404
4391.638095
4444.344513
4437.089894
4428.091886
4411.242622
4406.220879
4458.909403
4414.314299
4469.363349
4471.478104
4462.105169
4455.896549
4434.761878
4432.790635
4434.443243
4442.296302
4384.684251
4412.059092
4417.994819
4422.696806
4432.598799
4428.328639
4421.983876
4448.590207
4416.550101
4456.946196
4424.434795
4428.442328
4416.109232
4438.424027
4447.476904
4401.835872
4411.687500
4415.588518
4433.827115
4457.664740
4377.391815
4443.261313
4455.044500
4411.781897
4438.858499
4464.841493
4440.339526
4385.121716
4479.742078
4431.802798
4428.306326
4469.604412
4431.956983
4417.285630
4424.497533
4419.230978
4424.824850
4421.463720
4405.595555
4443.922312
4390.965638
4452.318033
4415.852948
4399.874290
4380.979850
4449.719088
4450.919064
4401.271228
4425.497315
4423.585151
4401.097681
4409.532577
4392.013545
4413.391191
4421.689611
4419.639041
4457.706138
4444.869115
4468.680498
4440.909851
4434.007076
4423.728150
4435.974892
4379.784445
4414.523399
4423.003349
4423.373132
4431.207950
4431.467741
4413.987601
4447.321593
4421.088913
4428.326618
4425.466997
4431.053775
4428.047529
4413.737157
4392.888006
4420.315346
4413.081351
4419.545096
4400.014743
4474.824544
4423.802888
4487.495577
4460.768543
4472.021731
4499.111853
4440.115669
4472.451672
4466.100416
4434.550803
4388.503619
4452.136145
4413.384995
4415.296334
4422.037624
4432.737664
4409.147961
4424.540012
4436.799133
4389.458927
4436.831369
4426.147646
4427.290138
4438.672183
4400.592312
4412.327977
4430.962424
4446.258428
4434.438082
4405.113731
4453.494319
4423.643011
4380.203512
4508.894255
4412.418277
4423.599859
4528.969372
4466.024002
4448.171911
4458.093178
4452.654553
4426.138442
4409.092619
4408.880366
4425.138930
4419.435973
4420.145570
4437.492930
4413.468300
4438.803232
4437.730167
4422.708554
4418.701592
4420.221575
4439.123342
4430.431698
4454.732231
4416.701458
4423.498361
4419.820223
4432.269501
4436.019000
4424.097113
4481.287766
4455.604761
4418.885252
4465.680991
4458.506935
4447.833083
4464.123037
4431.290436
4435.460109
4432.232045
4445.856638
4412.582927
4464.524102
4424.718813
4431.928683
4426.753212
4422.076020
4406.453505
4434.834646
4417.169488
4437.070018
4396.346647
4434.312803
4421.790389
4394.884952
4452.387344
4422.225878
4428.784398
4448.959922
4415.750040
4427.464695
4415.878945
4416.363361
4480.829021
4479.249759
4432.249494
4470.507618
4441.604018
4453.367132
4451.867669
4493.101179
4479.282123
4427.308679
4373.536969
4430.208208
4430.040012
4413.392415
4436.021320
4436.895124
4411.130091
4430.857424
4426.343891
4411.458782
4438.719951
4404.408131
4432.101356
4433.445230
4410.495991
4406.859142
4413.928968
4436.071151
4450.116412
4436.307688
4427.621396
4436.144102
4456.543083
4487.036933
4479.664630
4444.066696
4441.903081
4352.084756
4464.525973
4412.002286
4398.984598
4441.730150
4428.963555
4430.645094
4440.457561
4413.420909
4408.423375
4422.115448
4415.946833
4414.802682
4422.892670
4428.427224
4413.925385
4427.644358
4418.203835
4431.472684
4431.364618
4424.549565
4395.003419
4439.441510
4420.595345
4423.505737
4471.703860
4453.219510
4458.783457
4427.745861
4453.846399
4464.054297
4444.356049
4420.381998
4511.612933
4392.571631
4453.296827
4440.149759
4416.199280
4433.338331
4427.430713
4424.959119
4445.215583
4417.157524
4434.056887
4440.290704
4408.274603
4423.911402
4421.305037
4433.632207
4443.931662
4414.516679
4426.781744
4429.750019
4447.301231
4458.073242
4435.023773
4473.613503
4412.277758
4456.820750
4461.664150
4450.216128
4445.757042
4442.719809
4408.538179
4509.635483
4386.399861
4336.837190
4430.542377
4428.023753
4425.080236
4418.688927
4432.937552
4399.575977
4453.498502
4414.718049
4432.937986
4421.873505
4399.364694
4433.443388
4417.709416
4409.096778
4428.651615
4425.634968
4427.223293
4417.188852
4428.629179
4456.132334
4457.323624
4442.126506
4449.581255
4420.452818
4452.463463
4429.134777
4393.385967
4398.164725
4484.174284
4432.837679
4512.503321
4430.381314
4424.280529
4447.973484
4406.845534
4433.515549
4418.963109
4424.419241
4404.908884
4410.810536
4439.892091
4441.768359
4445.733323
4437.772336
4411.225857
4432.673448
4424.473141
4424.600758
4435.760819
4424.002567
4416.748235
4428.672453
4442.659346
4433.017649
4426.095627
4422.540059
4449.281751
4474.045642
4436.015212
4438.049418
4396.877161
4409.383666
4430.251779
4423.665184
4409.712499
4434.286398
4416.104516
4444.139810
4417.712884
4430.248358
4442.906033
4401.566480
4426.486395
4414.610643
4447.515529
4432.432885
4413.705223
4423.228327
4439.249095
4427.365131
4428.441778
4426.696129
4454.424570
4454.565876
4439.300494
4455.995882
4433.165822
4437.187751
4493.467897
4419.934383
4448.490823
4418.635820
4433.851949
4427.047011
4430.720550
4430.122008
4431.237533
4433.949334
4413.817219
4445.636540
4419.363309
4423.144024
4436.340185
4444.747126
4416.577770
4415.027869
4433.464480
4420.604102
4402.639520
4435.082555
4436.742460