# vtk DataFile Version 2.0
mfree iwf
ASCII

DATASET UNSTRUCTURED_GRID
POINTS 6231 float
0.000000 0.000300 0.000000
0.000000 0.000310 0.000000
0.000000 0.000320 0.000000
0.000000 0.000330 0.000000
0.000000 0.000340 0.000000
0.000000 0.000350 0.000000
0.000000 0.000360 0.000000
0.000001 0.000370 0.000000
0.000001 0.000380 0.000000
0.000001 0.000390 0.000000
0.000001 0.000400 0.000000
0.000001 0.000410 0.000000
0.000001 0.000420 0.000000
0.000001 0.000430 0.000000
0.000001 0.000440 0.000000
0.000001 0.000450 0.000000
0.000002 0.000460 0.000000
0.000002 0.000470 0.000000
0.000002 0.000480 0.000000
0.000001 0.000492 0.000000
0.000006 0.000501 0.000000
0.001029 0.001091 0.000000
0.001104 0.001124 0.000000
0.001047 0.001097 0.000000
0.001116 0.001129 0.000000
0.001139 0.001133 0.000000
0.001188 0.001136 0.000000
0.001196 0.001134 0.000000
0.001208 0.001128 0.000000
0.001220 0.001125 0.000000
0.001250 0.001125 0.000000
0.000010 0.000300 0.000000
0.000010 0.000310 0.000000
0.000010 0.000320 0.000000
0.000010 0.000330 0.000000
0.000010 0.000340 0.000000
0.000010 0.000350 0.000000
0.000010 0.000360 0.000000
0.000011 0.000370 0.000000
0.000011 0.000380 0.000000
0.000011 0.000390 0.000000
0.000011 0.000400 0.000000
0.000011 0.000410 0.000000
0.000011 0.000420 0.000000
0.000011 0.000430 0.000000
0.000011 0.000440 0.000000
0.000011 0.000450 0.000000
0.000012 0.000460 0.000000
0.000011 0.000472 0.000000
0.000013 0.000478 0.000000
0.000009 0.000492 0.000000
0.000013 0.000498 0.000000
0.001157 0.001129 0.000000
0.001173 0.001130 0.000000
0.001181 0.001130 0.000000
0.001187 0.001128 0.000000
0.001202 0.001121 0.000000
0.001214 0.001119 0.000000
0.001228 0.001115 0.000000
0.001239 0.001116 0.000000
0.001244 0.001113 0.000000
0.001247 0.001121 0.000000
0.000020 0.000300 0.000000
0.000020 0.000310 0.000000
0.000020 0.000320 0.000000
0.000020 0.000330 0.000000
0.000021 0.000340 0.000000
0.000020 0.000350 0.000000
0.000021 0.000360 0.000000
0.000021 0.000370 0.000000
0.000020 0.000380 0.000000
0.000021 0.000390 0.000000
0.000020 0.000400 0.000000
0.000022 0.000410 0.000000
0.000020 0.000420 0.000000
0.000022 0.000430 0.000000
0.000020 0.000440 0.000000
0.000023 0.000451 0.000000
0.000020 0.000460 0.000000
0.000022 0.000470 0.000000
0.000021 0.000482 0.000000
0.000024 0.000494 0.000000
0.000020 0.000497 0.000000
0.001124 0.001119 0.000000
0.001153 0.001125 0.000000
0.001164 0.001126 0.000000
0.001168 0.001124 0.000000
0.001178 0.001116 0.000000
0.001193 0.001119 0.000000
0.001219 0.001112 0.000000
0.001234 0.001111 0.000000
0.001241 0.001102 0.000000
0.001248 0.001099 0.000000
0.000030 0.000300 0.000000
0.000030 0.000310 0.000000
0.000030 0.000320 0.000000
0.000031 0.000330 0.000000
0.000030 0.000340 0.000000
0.000031 0.000350 0.000000
0.000030 0.000360 0.000000
0.000031 0.000370 0.000000
0.000031 0.000380 0.000000
0.000031 0.000390 0.000000
0.000031 0.000400 0.000000
0.000031 0.000410 0.000000
0.000031 0.000420 0.000000
0.000031 0.000430 0.000000
0.000031 0.000440 0.000000
0.000030 0.000450 0.000000
0.000031 0.000459 0.000000
0.000036 0.000473 0.000000
0.000029 0.000478 0.000000
0.000032 0.000488 0.000000
0.000032 0.000497 0.000000
0.000063 0.000500 0.000000
0.001145 0.001120 0.000000
0.001162 0.001111 0.000000
0.001188 0.001109 0.000000
0.001196 0.001102 0.000000
0.001204 0.001114 0.000000
0.001206 0.001106 0.000000
0.001218 0.001103 0.000000
0.001224 0.001101 0.000000
0.001246 0.001091 0.000000
0.000040 0.000300 0.000000
0.000040 0.000310 0.000000
0.000040 0.000320 0.000000
0.000040 0.000330 0.000000
0.000040 0.000340 0.000000
0.000040 0.000350 0.000000
0.000041 0.000360 0.000000
0.000040 0.000370 0.000000
0.000041 0.000380 0.000000
0.000040 0.000390 0.000000
0.000042 0.000399 0.000000
0.000041 0.000410 0.000000
0.000042 0.000420 0.000000
0.000040 0.000430 0.000000
0.000042 0.000439 0.000000
0.000043 0.000450 0.000000
0.000042 0.000460 0.000000
0.000037 0.000469 0.000000
0.000045 0.000477 0.000000
0.000043 0.000496 0.000000
0.000040 0.000498 0.000000
0.000925 0.000952 0.000000
0.001152 0.001111 0.000000
0.001170 0.001109 0.000000
0.001176 0.001104 0.000000
0.001187 0.001111 0.000000
0.001208 0.001098 0.000000
0.001228 0.001091 0.000000
0.001225 0.001081 0.000000
0.001236 0.001094 0.000000
0.001244 0.001082 0.000000
0.000050 0.000300 0.000000
0.000050 0.000310 0.000000
0.000050 0.000320 0.000000
0.000049 0.000330 0.000000
0.000051 0.000339 0.000000
0.000050 0.000350 0.000000
0.000051 0.000360 0.000000
0.000050 0.000371 0.000000
0.000052 0.000380 0.000000
0.000050 0.000390 0.000000
0.000052 0.000400 0.000000
0.000049 0.000410 0.000000
0.000053 0.000419 0.000000
0.000051 0.000430 0.000000
0.000053 0.000440 0.000000
0.000047 0.000451 0.000000
0.000054 0.000458 0.000000
0.000052 0.000469 0.000000
0.000055 0.000483 0.000000
0.000048 0.000488 0.000000
0.000050 0.000498 0.000000
0.001143 0.001127 0.000000
0.001098 0.001115 0.000000
0.001164 0.001102 0.000000
0.001176 0.001088 0.000000
0.001194 0.001093 0.000000
0.001209 0.001090 0.000000
0.001200 0.001085 0.000000
0.001218 0.001090 0.000000
0.001233 0.001082 0.000000
0.001239 0.001071 0.000000
0.000060 0.000300 0.000000
0.000060 0.000310 0.000000
0.000060 0.000321 0.000000
0.000060 0.000331 0.000000
0.000061 0.000340 0.000000
0.000059 0.000350 0.000000
0.000061 0.000359 0.000000
0.000060 0.000369 0.000000
0.000062 0.000380 0.000000
0.000059 0.000390 0.000000
0.000063 0.000399 0.000000
0.000060 0.000409 0.000000
0.000063 0.000419 0.000000
0.000058 0.000430 0.000000
0.000065 0.000440 0.000000
0.000060 0.000449 0.000000
0.000065 0.000460 0.000000
0.000055 0.000471 0.000000
0.000064 0.000475 0.000000
0.000068 0.000485 0.000000
0.000058 0.000496 0.000000
0.001132 0.001126 0.000000
0.001143 0.001111 0.000000
0.001158 0.001093 0.000000
0.001176 0.001095 0.000000
0.001189 0.001083 0.000000
0.001190 0.001075 0.000000
0.001219 0.001072 0.000000
0.001211 0.001081 0.000000
0.001229 0.001071 0.000000
0.001236 0.001063 0.000000
0.000070 0.000300 0.000000
0.000070 0.000310 0.000000
0.000070 0.000319 0.000000
0.000071 0.000329 0.000000
0.000071 0.000340 0.000000
0.000070 0.000351 0.000000
0.000072 0.000359 0.000000
0.000068 0.000373 0.000000
0.000081 0.000376 0.000000
0.000069 0.000390 0.000000
0.000073 0.000400 0.000000
0.000068 0.000411 0.000000
0.000074 0.000421 0.000000
0.000068 0.000429 0.000000
0.000075 0.000438 0.000000
0.000066 0.000452 0.000000
0.000077 0.000458 0.000000
0.000073 0.000470 0.000000
0.000076 0.000486 0.000000
0.000068 0.000495 0.000000
0.000076 0.000496 0.000000
0.000916 0.000931 0.000000
0.001132 0.001114 0.000000
0.001152 0.001102 0.000000
0.001170 0.001072 0.000000
0.001187 0.001093 0.000000
0.001201 0.001074 0.000000
0.001211 0.001072 0.000000
0.001204 0.001063 0.000000
0.001225 0.001062 0.000000
0.001232 0.001053 0.000000
0.000080 0.000300 0.000000
0.000080 0.000310 0.000000
0.000081 0.000321 0.000000
0.000079 0.000331 0.000000
0.000081 0.000340 0.000000
0.000080 0.000351 0.000000
0.000082 0.000361 0.000000
0.000074 0.000370 0.000000
0.000075 0.000383 0.000000
0.000080 0.000391 0.000000
0.000089 0.000397 0.000000
0.000079 0.000410 0.000000
0.000086 0.000417 0.000000
0.000079 0.000431 0.000000
0.000086 0.000445 0.000000
0.000077 0.000448 0.000000
0.000085 0.000464 0.000000
0.000074 0.000470 0.000000
0.000087 0.000472 0.000000
0.000085 0.000482 0.000000
0.000084 0.000495 0.000000
0.001123 0.001125 0.000000
0.001094 0.001121 0.000000
0.001155 0.001081 0.000000
0.001165 0.001089 0.000000
0.001179 0.001078 0.000000
0.001184 0.001066 0.000000
0.001195 0.001065 0.000000
0.001214 0.001060 0.000000
0.001221 0.001053 0.000000
0.001228 0.001044 0.000000
0.000090 0.000300 0.000000
0.000090 0.000310 0.000000
0.000090 0.000319 0.000000
0.000090 0.000329 0.000000
0.000091 0.000341 0.000000
0.000089 0.000349 0.000000
0.000092 0.000361 0.000000
0.000089 0.000369 0.000000
0.000092 0.000379 0.000000
0.000089 0.000387 0.000000
0.000084 0.000404 0.000000
0.000093 0.000410 0.000000
0.000086 0.000425 0.000000
0.000096 0.000426 0.000000
0.000089 0.000435 0.000000
0.000097 0.000455 0.000000
0.000087 0.000453 0.000000
0.000099 0.000472 0.000000
0.000106 0.000480 0.000000
0.000089 0.000494 0.000000
0.000094 0.000495 0.000000
0.000934 0.000968 0.000000
0.001126 0.001108 0.000000
0.001115 0.001115 0.000000
0.001144 0.001101 0.000000
0.001162 0.001069 0.000000
0.001189 0.001057 0.000000
0.001202 0.001055 0.000000
0.001208 0.001050 0.000000
0.001217 0.001044 0.000000
0.001224 0.001035 0.000000
0.000100 0.000300 0.000000
0.000100 0.000310 0.000000
0.000100 0.000321 0.000000
0.000100 0.000331 0.000000
0.000101 0.000339 0.000000
0.000099 0.000350 0.000000
0.000101 0.000360 0.000000
0.000100 0.000371 0.000000
0.000101 0.000381 0.000000
0.000100 0.000391 0.000000
0.000100 0.000400 0.000000
0.000103 0.000406 0.000000
0.000101 0.000418 0.000000
0.000100 0.000436 0.000000
0.000108 0.000442 0.000000
0.000096 0.000445 0.000000
0.000107 0.000460 0.000000
0.000096 0.000465 0.000000
0.000094 0.000481 0.000000
0.000106 0.000491 0.000000
0.000101 0.000494 0.000000
0.001052 0.001101 0.000000
0.001062 0.001106 0.000000
0.001088 0.001118 0.000000
0.001168 0.001079 0.000000
0.001177 0.001064 0.000000
0.001178 0.001054 0.000000
0.001198 0.001047 0.000000
0.001189 0.001044 0.000000
0.001211 0.001038 0.000000
0.001219 0.001027 0.000000
0.000110 0.000300 0.000000
0.000110 0.000310 0.000000
0.000110 0.000319 0.000000
0.000110 0.000329 0.000000
0.000110 0.000341 0.000000
0.000112 0.000351 0.000000
0.000109 0.000359 0.000000
0.000113 0.000370 0.000000
0.000110 0.000378 0.000000
0.000110 0.000389 0.000000
0.000112 0.000400 0.000000
0.000110 0.000414 0.000000
0.000116 0.000422 0.000000
0.000105 0.000427 0.000000
0.000114 0.000432 0.000000
0.000107 0.000450 0.000000
0.000116 0.000462 0.000000
0.000110 0.000470 0.000000
0.000116 0.000480 0.000000
0.000111 0.000493 0.000000
0.000119 0.000492 0.000000
0.000998 0.001058 0.000000
0.000943 0.000987 0.000000
0.001120 0.001103 0.000000
0.001139 0.001090 0.000000
0.001129 0.001087 0.000000
[...]
POINT_DATA 6231
SCALARS density float 1
LOOKUP_TABLE default
4414.964661
4427.128520
4423.288699
4423.486847
4424.078471
4423.133668
4425.620733
4426.977081
4428.442156
4430.108764
4429.621783
4433.633395
4428.308546
4429.802093
4431.747650
4440.003686
4423.294724
4431.865893
4413.705524
4424.126019
4411.206853
4422.010294
4423.794417
4432.172078
4437.472533
4421.093747
4397.096703
4428.611157
4447.610833
4450.491097
4416.381790
4417.351829
4424.676805
4426.139615
4428.504485
4428.839950
4428.749358
4426.425502
4428.341693
4428.473706
4429.018289
4422.764143
4427.041406
4422.792642
4439.281418
4417.343045
4428.080441
4410.950867
4442.097013
4462.872906
4459.731597
4416.288900
4406.689075
4416.636590
4436.334866
4513.524297
4395.280143
4406.778129
4422.418784
4400.098319
4450.376384
4437.938608
4419.986101
4431.661960
4426.278513
4423.756802
4425.006935
4427.199789
4427.072605
4432.128734
4420.062162
4434.197657
4427.520573
4441.919407
4422.988437
4437.186521
4413.677395
4474.728001
4400.751197
4454.831628
4351.407141
4450.896455
4421.559065
4427.741160
4439.322894
4418.648183
4505.819729
4325.060586
4362.156486
4413.922302
4426.533504
4426.724988
4402.557954
4428.286694
4429.641480
4424.797853
4434.839926
4434.057753
4432.611445
4423.958925
4436.890006
4424.818066
4438.200314
4411.939840
4430.076481
4414.981286
4446.537616
4407.965671
4430.614482
4388.905894
4451.468500
4374.199248
4550.166891
4373.668355
4435.675137
4469.083448
4431.783576
4468.025048
4350.390083
4485.167358
4447.412089
4419.980430
4475.968426
4430.277128
4432.863076
4428.605721
4432.865807
4436.971471
4419.900612
4439.173952
4430.587409
4432.341751
4423.152048
4431.882968
4419.067621
4450.665562
4411.944792
4444.380064
4412.610346
4448.044993
4388.656380
4512.248295
4310.409720
4418.785923
4385.057093
4429.479229
4402.859409
4437.431162
4447.950813
4498.274282
4434.392129
4401.224160
4484.858254
4445.310065
4415.174354
4429.395747
4431.992814
4427.962650
4433.015272
4435.754174
4435.900200
4420.340850
4440.053269
4422.223906
4438.917469
4416.951718
4438.345129
4400.859268
4449.689956
4375.182224
4481.121415
4361.504139
4471.724822
4363.643270
4538.178420
4381.005226
4437.544424
4429.516895
4451.906617
4450.617264
4455.566089
4439.380096
4402.781726
4412.608745
4418.206985
4420.752798
4427.323913
4441.719611
4422.033184
4437.013855
4434.629575
4438.103003
4415.309489
4442.531442
4400.864000
4443.052133
4427.622053
4440.878305
4424.253558
4444.783753
4409.551843
4465.797773
4403.278453
4514.899077
4376.270996
4470.293811
4433.256374
4412.778916
4391.943506
4403.938005
4412.159583
4453.698405
4425.188739
4419.241676
4409.011764
4413.460792
4434.085286
4432.630553
4430.472277
4423.030014
4438.328070
4400.368649
4446.763091
4425.723177
4422.350336
4408.082706
4452.588056
4385.536011
4435.132925
4410.033105
4433.521155
4440.665603
4458.073927
4433.998284
4450.891064
4455.997761
4414.539417
4386.415714
4434.679478
4464.074927
4443.877765
4409.417008
4393.214017
4425.656321
4451.051901
4436.964239
4439.638228
4413.451905
4430.480608
4426.503742
4425.707323
4426.484646
4425.514710
4436.667934
4416.992355
4445.655962
4427.679628
4441.397211
4419.233046
4435.590274
4423.298929
4438.851371
4451.792291
4399.493760
4459.092620
4449.440511
4365.519352
4468.027965
4409.033728
4428.914233
4414.557273
4434.658101
4429.258215
4392.403137
4451.678102
4439.457827
4401.593188
4437.929497
4436.557697
4424.495090
4433.901375
4435.470375
4406.650752
4437.080847
4423.313911
4432.824494
4446.795405
4431.392758
4421.961586
4447.443609
4403.517945
4425.981349
4455.241548
4413.499250
4389.258187
4429.378586
4406.798498
4439.562676
4423.292118
4413.077004
4426.985096
4414.704683
4437.431947
4477.532140
4400.664349
4382.797926
4435.415087
4439.858411
4432.370992
4412.536588
4428.558469
4429.391695
4421.156949
4445.151580
4432.376840
4418.882114
4441.291849
4402.526128
4448.621343
4420.334567
4436.886068
4445.290292
4424.171551
4400.259018
4452.232290
4458.551921
4427.909714
4466.912346
4426.463482
4429.183580
4416.010660
4425.225748
4434.912359
4427.208643
4453.548892
4461.731442
4389.529193
4409.384548
4471.291932
4451.900586
4424.137377
4428.640961
4436.106333
4434.291431
4422.285424
4424.214591
4424.112100
4438.210802
4433.227893
4430.974815
4424.179116
4412.094621
4435.041847
4410.205146
4446.117984
4417.854619
4419.695380
4477.352870
4406.869633
4456.272187
4403.145667
4410.315361
4437.683272
4437.662222
4407.641440
4386.146716
4394.597532
4449.088174
4453.190782
4408.806108
4423.996827
4453.417700
4433.499791
4429.416344
4424.688022
4432.584775
4431.827676
4432.703683
4408.304470
4440.881598
4396.032714
4450.386192
4438.758477
4416.820428
4448.713452
4459.150101
4411.500456
4403.140075
4420.239425
4380.422517
4435.313710
4437.145302
4391.913621
4440.531418
4415.326477
4428.338819
4452.791727
4441.576828
4416.295071
4348.731268
4460.086617
4387.750507
4418.511679
4439.400713
4429.596030
4430.194191
4439.568352
4413.628559
4440.238586
4430.400594
4425.790718
4450.500206
4409.441145
4410.186256
4408.654882
4437.886210
4420.316141
4395.731796
4467.935112
4409.442655
4467.261478
4486.090129
4417.957827
4438.970915
4435.437651
4418.129271
4423.748762
4424.451454
4437.039627
4458.095824
4460.532564
4465.043636
4495.337658
4454.539965
4432.689447
4432.958742
4434.051339
4418.965015
4440.324086
4421.057819
4428.130488
4413.048624
4416.170555
4413.779343
4451.896726
4418.972522
4455.557122
4414.749958
4435.728234
4357.534342
4415.106262
4486.273823
4572.088332
4390.756628
4380.512156
4426.667815
4420.182277
4449.028575
4454.987894
4409.445688
4439.690187
4426.777740
4403.069058
4405.074609
4448.092003
4426.261322
4436.040738
4434.155392
4414.264580
4441.594059
4400.634050
4437.209752
4430.307542
4434.942425
4404.805944
4453.428056
4420.292919
4433.955843
4421.877316
4449.092521
4442.247737
4523.836840
4343.737316
4324.912695
4462.960550
4391.997631
4414.930994
4431.192500
4435.990609
4479.441621
4446.308601
4442.772905
4435.036869
4398.635991
4422.985857
4412.531407
4432.709565
4428.003356
4431.012469
4425.296934
4435.609152
4430.756010
4430.431741
4382.415134
4425.885031
4448.387381
4445.494265
4432.216238
4454.985869
4398.528472
4435.149642
4415.474590
4411.589889
4486.710705
4473.780419
4421.288745
4405.309759
4427.930500
4451.109389
4403.847580
4369.979172
4461.405071
4466.071394
4420.938711
4405.303209
4432.106376
4429.501971
4436.781720
4417.616163
4440.525033
4435.970085
4430.006353
4415.639114
4415.254951
4444.798241
4439.468645
4413.325134
4436.038622
4423.677861
4403.472344
4442.722735
4418.051681
4435.843509
4398.056572
4469.346862
4376.177001
4393.068186
4418.393158
4421.656378
4438.913340
4440.053406
4398.058339
4469.046034
4441.900566
4397.859763
4467.527608
4427.643948
4439.055833
4430.408673
4426.254368
4438.417786
4416.194805
4434.360823
4441.104032
4415.758163
4399.200768
4432.172665
4432.946409
4431.284556
4449.619758
4449.673597
4417.989444
4417.177963
4444.501193
4391.726439
4431.781843
4425.488085
4435.972016
4386.257498
4423.251510
4434.026773
4436.083977
4443.469587
4416.129181
4477.356401
4479.729442
4413.096918
4420.825009
4420.165249
4427.927314
4428.384683
4424.502104
4422.859379
4439.706096
4405.373465
4446.863538
4435.708216
4425.889802
4414.418978
4420.125835
4411.376745
4438.646129
4419.567342
4420.078547
4450.865669
4379.089775
4470.992975
4425.339358
4553.735718
4376.869278
4464.959918
4419.989444
4436.039692
4448.099611
4381.345141
4463.924768
4389.967130
4411.631783
4413.677117
4421.096278
4430.352241
4435.089067
4427.528459
4433.789604
4418.557741
4453.474606
4404.602083
4410.972767
4385.022971
4449.809448
4451.334997
4437.697160
4426.177325
4436.921037
4435.693953
4434.932364
4469.025720
4477.334860
4388.280445
4385.619241
4434.218436
4416.205033
4430.677803
4461.043007
4438.525822
4405.618512
4432.071365
4451.415658
4457.605475
4424.761816
4410.386084
4432.113724
4429.249726
4423.066629
4439.236628
4412.649424
4451.373069
4406.255696
4429.178060
4443.714992
4415.657150
4422.768387
4417.202812
4456.698923
4427.322859
4390.410022
4467.505460
4422.696559
4405.783099
4393.756821
4461.451350
4415.179193
4449.934202
4419.399506
4428.699303
4429.900543
4388.683963
4372.955067
4451.109194
4355.410258
4425.387050
4444.388020
4427.451006
4435.331700
4431.065935
4435.306733
4427.886898
4402.625958
4443.358757
4415.810109
4406.691917
4445.720836
4405.392782
4431.210399
4455.020637
4421.848138
4393.689338
4451.894157
4415.382159
4412.900398
4449.998937
4449.815223
4428.700724
4424.399817
4418.581625
4457.556265
4411.920067
4433.761494
4476.384019
4341.958052
4486.445824
4387.806000
4418.787883
4429.868705
4428.365494
4429.227901
4410.961421
4443.879507
4439.364795
4429.845120
4417.029169
4406.242843
4440.225127
4413.886397
4440.876995
4398.415277
4433.413011
4428.472250
4425.905569
4414.423284
4448.595290
4401.739163
4433.240651
4423.348434
4412.228343
4440.405395
4418.078016
4443.501215
4465.705288
4422.278045
4400.077013
4447.038258
4438.417737
4444.483425
4428.284882
4422.912443
4438.788469
4443.331387
4407.434688
4421.993505
4410.831277
4446.897952
4437.060341
4419.034464
4438.123310
4428.666162
4441.288923
4450.043871
4388.807214
4453.402853
4403.624261
4454.014877
4436.581774
4472.266761
4413.817505
4421.666086
4456.953591
4422.215590
4432.348252
4452.883377
4428.092790
4462.645497
4423.661971
4419.976448
4434.130037
4435.071446
4442.087653
4410.052179
4436.243355
4434.186230
4435.982543
4440.322769
4414.447802
4412.597298
4440.734366
4442.368819
4445.709639
4433.242091
4426.096274
4437.818450
4434.902389
4402.314010
4450.823956
4362.865749
4426.772815
4430.947077
4414.947493
4456.547763
4432.563858
4435.569244
4392.011879
4446.680983
4422.539933
4447.475004
4409.517245
4420.204041
4423.548830
4439.071876
4417.418675
4436.513752
4414.226574
4426.099231
4414.910741
4448.704611
4432.391459
4440.352881
4399.599146
4463.387958
4394.597044
4409.132989
4400.114616
4446.587179
4430.664494
4461.090901
4420.448397
4435.297830
4427.370047
4433.526809
4421.665022
4392.906544
4420.783195
4443.034160
4419.703812
4409.187847
4470.429369
4408.391450
4443.020241
4423.651948
4432.279237
4434.608864
4436.556559
4416.904747
4453.756618
4419.380306
4427.363771
4400.671295
4447.954612
4402.391155
4413.298033
4425.357107
4445.435188
4425.046862
4453.912261
4405.103165
4459.774754
4420.319258
4437.622677
4413.471548
4423.798640
4429.129321
4427.951090
4414.879672
4421.002224
4417.896946
4447.935223
4415.015700
4404.199476
4431.107653
4434.750189
4430.148983
4412.514926
4432.115744
4430.496502
4422.096715
4423.240216
4440.569982
4418.056532
4423.763069
4433.459834
4446.680129
4431.113842
4438.653522
4394.989971
4446.793131
4400.736136
4453.566864
4426.259500
4432.136733
4409.556635
4431.052167
4415.786602
4431.778987
4473.464873
4398.769955
4413.328406
4443.513057
4409.912258
4435.090416
4405.857672
4428.204495
4424.322376
4440.168482
4440.714975
4428.283077
4424.285693
4435.950155
4421.149743
4436.877811
4430.241674
4409.423319
4439.713941
4425.152404
4416.739337
4421.376647
4430.122073
4416.225667
4376.021369
4383.395329
4461.930474
4428.981765
4409.969575
4420.530405
4409.970860
4452.055260
4432.560357
4404.881463
4464.404210
4421.463952
4421.529310
4447.319117
4433.270054
4425.333566
4430.367360
4403.992398
4441.775834
4423.427683
4432.163425
4435.104556
4409.006960
4438.134173
4459.500983
4411.959161
4438.840131
4445.838264
4429.781112
4401.848917
4419.002686
4490.992719
4458.976053
4429.972295
4436.623363
4434.304963
4439.049727
4417.688527
4423.952792
4416.378226
4437.212072
4417.757048
4434.627705
4413.043951
4436.312032
4430.850268
4432.264907
4436.196425
4441.851587
4435.727926
4429.159674
4420.973083
4443.171643
4444.873658
4415.270352
4411.232409
4433.700570
4449.437898
4403.913733
4436.102113
4459.694494
4386.942197
4448.375917
4403.718862
4393.196331
4429.891377
4434.772506
4427.564302
4389.412533
4470.397514
4394.442909
4425.331374
4415.944967
4468.585933
4353.195521
4413.787763
4432.354686
4433.431357
4418.390977
4428.145215
4410.159675
4454.578279
4436.374627
4402.274605
4409.635047
4450.015846
4447.386104
4417.329108
4409.340576
4462.685636
4441.272243
4436.386375
4390.115218
4389.641592
4465.722640
4454.292496
4440.756351
4406.256218
4404.240970
4428.249201
4441.352786
4442.364059
4375.638827
4467.438532
4431.484856
4463.850848
4416.782390
4433.140153
4437.536091
4429.961387
4438.361866
4441.073542
4411.531949
4406.536546
4456.287861
4432.714131
4408.780256
4403.734984
4451.061443
4435.760924
4413.656236
4401.056119
4435.901238
4464.902659
4445.417800
4333.826279
4469.154434
4463.844419
4435.674405
4473.654022
4424.796300
4442.344428
4458.332827
4436.780361
4415.887534
4402.172584
4404.218514
4439.295816
4431.455026
4433.927758
4417.135508
4417.425281
4421.032178
4447.726575
4432.029459
4413.720134
4401.669173
4465.743885
4421.079509
4422.391970
4416.790316
4444.746436
4403.716182
4448.821237
4374.258108
4447.949354
4315.431318
4501.864008
4437.082272
4417.435136
4428.340433
4485.628681
4424.614124
4442.356709
4398.265103
4477.324286
4359.304038
4435.514498
4449.463308
4429.842376
4434.480272
4428.078201
4445.343369
4418.480067
4422.467160
4423.962214
4447.934982
4436.100463
4394.676014
4423.193735
4443.563302
4402.658124
4464.148062
4380.352716
4463.028584
4389.421268
4478.452091
4473.985447
4504.857099
4412.816355
4415.247312
4381.381363
4437.699863
4404.534012
4434.835761
4451.494369
4446.354209
4447.077874
4354.574082
4454.479816
4425.095363
4436.165119
4417.503396
4426.624145
4412.067565
4431.260770
4429.344505
4399.341149
4425.350540
4458.343644
4429.145846
4440.627984
4417.924709
4416.530334
4451.570030
4431.427678
4436.765893
4429.567745
4434.231928
4507.649538
4450.037752
4432.216780
4440.200311
4421.086544
4388.189268
4458.558263
4412.352789
4436.722444
4442.240296
4439.211291
4410.719084
4426.754028
4429.059894
4433.005188
4438.592491
4433.909902
4444.869276
4440.595285
4449.475645
4392.664837
4403.855822
4448.336685
4460.465468
4417.027283
4390.180356
4406.919612
4410.191434
4453.453633
4398.747945
4389.774821
4427.507454
4392.571421
4416.004877
4422.119834
4435.350397
4405.611612
4446.695035
4381.211116
4398.242439
4478.463600
4471.639809
4409.080929
4429.488935
4430.687721
4417.023768
4424.280998
4426.800072
4415.748728
4395.619074
4436.964058
4432.957216
4426.335159
4459.188846
4428.750957
4443.062720
4445.025706
4443.778489
4469.672665
4383.271724
4446.262177
4440.618657
4446.027989
4430.200305
4435.036199
4423.630711
4452.714337
4443.795696
4471.548617
4467.427864
4439.724704
4379.521154
4414.588289
4400.026034
4431.762999
4423.742149
4442.543284
4436.563690
4407.402958
4429.567858
4447.979885
4453.138510
4431.427755
4412.141178
4446.219983
4405.309145
4402.191083
4423.904656
4426.334984
4434.225372
4450.489579
4425.523108
4452.327790
4432.769101
4429.143795
4431.328076
4436.103370
4421.319584
4425.722310
4448.461225
4410.043786
4491.316923
4397.556081
4451.712697
4428.001371
4429.328405
4430.201274
4413.658327
4437.125111
4429.593624
4416.223934
4417.164127
4427.370615
4436.750106
4444.566312
4399.348709
4463.645917
4423.247044
4432.140876
4395.811540
4437.803213
4400.446370
4398.114511
4412.960620
4456.542746
4436.281459
4424.544308
4461.347294
4427.187613
4425.275818
4437.175825
4429.406750
4444.340437
4348.009496
4388.824409
4402.524740
4417.406820
4431.472672
4434.244551
4408.020588
4451.606360
4411.924467
4409.190749
4438.165709
4419.538520
4393.054128
4411.176613
4437.925755
4415.967621
4408.993830
4436.142774
4406.182072
4455.762978
4388.460295
4430.700859
4432.965261
4422.964223
4420.652048
4426.253911
4409.969860
4444.861943
4467.671104
4443.772239
4359.286061
4453.386075
4472.886392
4414.377547
4427.441233
4428.865722
4425.146682
4454.241553
4404.420961
4435.946532
4457.441013
4446.826537
4450.927133
4419.545811
4414.973110
4437.742004
4461.980673
4431.194688
4430.674399
4425.651134
4392.550420
4454.400887
4361.564840
4423.418032
4433.247891
4433.596717
4423.815496
4447.998793
4412.114200
4407.950501
4404.553804
4374.744985
4451.073105
4395.772596
4431.768482
4433.748490
4431.755363
4413.026799
4442.717839
4414.518709
4415.909231
4404.615243
4443.061578
4447.928777
4399.373687
4401.903855
4424.275361
4422.114458
4390.467591
4402.743487
4468.593609
4379.586410
4455.751356
4457.762457
4452.062776
4432.268524
4430.973482
4432.354586
4419.831992
4459.120927
4420.919600
4462.716395
4467.334724
4465.997117
4433.495070
4400.438121
4420.395541
4441.345081
4429.104640
4409.721045
4435.242740
4444.416668
4419.370328
4447.671157
4419.399584
4432.476154
4455.253435
4431.160044
4417.869038
4413.969083
4449.576968
4423.661051
4437.752376
4438.399746
4390.036668
4473.441026
4444.391086
4435.334276
4400.279965
4435.831733
4412.003418
4456.263321
4394.482594
4419.446396
4328.661202
4404.209921
4401.877403
4436.902731
4419.726856
4433.905877
4439.968630
4410.153420
4434.613262
4413.285685
4420.671781
4422.064497
4427.529011
4430.433546
4433.117603
4416.545275
4448.990683
4462.421482
4419.407082
4395.201507
4472.586365
4380.553592
4437.932892
4414.031299
4402.805694
4444.165179
4399.089526
4427.633578
4461.756537
4442.101955
4396.522280
4408.153058
4465.366001
4450.051286
4433.294020
4423.103019
4426.389742
4436.845590
4429.247970
4415.964211
4452.098508
4438.400738
4427.750201
4434.479929
4439.680912
4417.253734
4427.873798
4433.112010
4457.743530
4401.566894
4433.541294
4463.428363
4430.855996
4334.016516
4404.711216
4425.732520
4421.360619
4435.536437
4454.513227
4474.560113
4404.873707
4445.707444
4457.214102
4398.765958
4360.369322
4421.096995
4438.568405
4435.124476
4404.831380
4440.430282
4431.028623
4416.004201
4426.965481
4418.563438
4416.354267
4422.862444
4430.539152
4440.234931
4390.445786
4450.246952
4383.204676
4420.109340
4455.047987
4387.271009
4523.696137
4393.044141
4430.328249
4412.395726
4439.678663
4438.611913
4447.553957
4443.803849
4417.375834
4497.606047
4451.184787
4417.082793
4430.696857
4429.297198
4420.020680
4429.505937
4432.099904
4430.764479
4446.676248
4426.664860
4431.671834
4419.250721
4397.054927
4424.156817
4403.819827
4456.813602
4441.305735
4449.276678
4437.624606
4417.615004
4425.829086
4428.110174
4480.719176
4438.475416
4457.672812
4422.057499
4456.509080
4471.696765
4434.527300
4433.297188
4460.819642
4434.887461
4485.961505
4434.853145
4425.736052
4432.668326
4435.876153
4403.981838
4438.109651
4398.385657
4448.930031
4411.827970
4421.146626
4448.822972
4410.526310
4432.247634
4433.569596
4400.378945
4446.720539
4404.925979
4421.805591
4416.277961
4442.907354
4438.567838
4436.621628
4463.135344
4472.133624
4451.542394
4429.448017
4371.467558
4389.635108
4373.704567
4344.143517
4393.007572
4429.154903
4430.753608
4422.045585
4415.724139
4443.470804
4446.061880
4422.967159
4434.032818
4437.450454
4452.916275
4427.480308
4454.974858
4433.328218
4422.714644
4458.667464
4396.489498
4395.316820
4453.074771
4415.456482
4428.935373
4443.782332
4417.983791
4432.444703
4429.147587
4469.541533
4434.464956
4358.570472
4453.907507
4489.961041
4394.024733
4447.370016
4430.670510
4421.744130
4434.713034
4422.720449
4427.054801
4403.538370
4416.443773
4426.822490
4477.968164
4420.439831
4427.894887
4428.043294
4423.528399
4437.483509
4412.991049
4442.064991
4437.480043
4446.179948
4380.655608
4413.125120
4417.252468
4434.033038
4384.871629
4438.764640
4368.885352
4392.902506
4456.138180
4469.578174
4474.982562
4390.320529
4422.405806
4430.789430
4418.601670
4425.040960
4429.129845
4455.624978
4450.528376
4413.792670
4412.798042
4398.233492
4428.170231
4395.313189
4445.535595
4433.129438
4426.594295
4455.789441
4409.902328
4430.213710
4464.861710
4475.919554
4379.628280
4423.197323
4413.784863
4433.938370
4421.743096
4390.494508
4442.267259
4405.446267
4457.472512
4464.638438
4417.853086
4405.299637
4419.945322
4440.818792
4423.679513
4420.717186
4430.825291
4413.361925
4424.017240
4446.382234
4408.988500
4426.317125
4428.726146
4434.580580
4410.916738
4438.287113
4420.169636
4400.636508
4444.798251
4454.131794