# vtk DataFile Version 2.0
mfree iwf
ASCII

DATASET UNSTRUCTURED_GRID
POINTS 6231 float
0.000000 0.000300 0.000000
0.000000 0.000310 0.000000
0.000000 0.000320 0.000000
0.000000 0.000330 0.000000
0.000001 0.000340 0.000000
0.000001 0.000350 0.000000
0.000001 0.000361 0.000000
0.000001 0.000371 0.000000
0.000001 0.000381 0.000000
0.000001 0.000391 0.000000
0.000001 0.000401 0.000000
0.000001 0.000411 0.000000
0.000001 0.000421 0.000000
0.000002 0.000431 0.000000
0.000002 0.000441 0.000000
0.000002 0.000451 0.000000
0.000002 0.000461 0.000000
0.000002 0.000471 0.000000
0.000002 0.000480 0.000000
0.000002 0.000492 0.000000
0.000006 0.000501 0.000000
0.000153 0.000539 0.000000
0.000153 0.000585 0.000000
0.000153 0.000560 0.000000
0.000153 0.000603 0.000000
0.000153 0.000626 0.000000
0.000154 0.000657 0.000000
0.000154 0.000659 0.000000
0.000158 0.000673 0.000000
0.000161 0.000686 0.000000
0.000173 0.000726 0.000000
0.000010 0.000300 0.000000
0.000010 0.000310 0.000000
0.000010 0.000320 0.000000
0.000010 0.000330 0.000000
0.000010 0.000340 0.000000
0.000011 0.000350 0.000000
0.000011 0.000360 0.000000
0.000011 0.000370 0.000000
0.000011 0.000380 0.000000
0.000011 0.000390 0.000000
0.000011 0.000400 0.000000
0.000011 0.000411 0.000000
0.000011 0.000420 0.000000
0.000012 0.000431 0.000000
0.000012 0.000440 0.000000
0.000012 0.000451 0.000000
0.000012 0.000460 0.000000
0.000012 0.000472 0.000000
0.000013 0.000479 0.000000
0.000010 0.000492 0.000000
0.000013 0.000498 0.000000
0.000158 0.000620 0.000000
0.000159 0.000636 0.000000
0.000159 0.000644 0.000000
0.000162 0.000651 0.000000
0.000167 0.000672 0.000000
0.000168 0.000680 0.000000
0.000171 0.000695 0.000000
0.000172 0.000704 0.000000
0.000173 0.000711 0.000000
0.000171 0.000719 0.000000
0.000020 0.000300 0.000000
0.000020 0.000310 0.000000
0.000020 0.000320 0.000000
0.000020 0.000330 0.000000
0.000021 0.000340 0.000000
0.000020 0.000350 0.000000
0.000021 0.000360 0.000000
0.000021 0.000370 0.000000
0.000021 0.000380 0.000000
0.000022 0.000391 0.000000
0.000021 0.000400 0.000000
0.000022 0.000410 0.000000
0.000021 0.000420 0.000000
0.000022 0.000431 0.000000
0.000021 0.000440 0.000000
0.000023 0.000451 0.000000
0.000021 0.000460 0.000000
0.000022 0.000470 0.000000
0.000022 0.000480 0.000000
0.000024 0.000494 0.000000
0.000020 0.000497 0.000000
0.000167 0.000597 0.000000
0.000165 0.000614 0.000000
0.000162 0.000627 0.000000
0.000168 0.000641 0.000000
0.000176 0.000651 0.000000
0.000171 0.000665 0.000000
0.000175 0.000685 0.000000
0.000175 0.000700 0.000000
0.000182 0.000711 0.000000
0.000185 0.000720 0.000000
0.000030 0.000300 0.000000
0.000030 0.000310 0.000000
0.000030 0.000320 0.000000
0.000031 0.000329 0.000000
0.000030 0.000340 0.000000
0.000031 0.000351 0.000000
0.000031 0.000360 0.000000
0.000031 0.000370 0.000000
0.000031 0.000380 0.000000
0.000031 0.000390 0.000000
0.000032 0.000400 0.000000
0.000031 0.000411 0.000000
0.000032 0.000420 0.000000
0.000032 0.000431 0.000000
0.000032 0.000440 0.000000
0.000030 0.000451 0.000000
0.000033 0.000459 0.000000
0.000034 0.000471 0.000000
0.000032 0.000479 0.000000
0.000032 0.000488 0.000000
0.000032 0.000498 0.000000
0.000063 0.000500 0.000000
0.000175 0.000624 0.000000
0.000169 0.000633 0.000000
0.000171 0.000657 0.000000
0.000183 0.000665 0.000000
0.000178 0.000671 0.000000
0.000184 0.000684 0.000000
0.000185 0.000692 0.000000
0.000188 0.000703 0.000000
0.000194 0.000717 0.000000
0.000040 0.000300 0.000000
0.000040 0.000310 0.000000
0.000040 0.000320 0.000000
0.000040 0.000331 0.000000
0.000041 0.000340 0.000000
0.000040 0.000350 0.000000
0.000041 0.000360 0.000000
0.000041 0.000370 0.000000
0.000042 0.000380 0.000000
0.000040 0.000391 0.000000
0.000042 0.000400 0.000000
0.000040 0.000410 0.000000
0.000043 0.000421 0.000000
0.000039 0.000431 0.000000
0.000044 0.000439 0.000000
0.000042 0.000450 0.000000
0.000044 0.000460 0.000000
0.000038 0.000471 0.000000
0.000045 0.000478 0.000000
0.000043 0.000497 0.000000
0.000040 0.000498 0.000000
0.000153 0.000513 0.000000
0.000180 0.000617 0.000000
0.000184 0.000635 0.000000
0.000182 0.000644 0.000000
0.000185 0.000654 0.000000
0.000189 0.000675 0.000000
0.000193 0.000689 0.000000
0.000198 0.000697 0.000000
0.000197 0.000706 0.000000
0.000202 0.000715 0.000000
0.000050 0.000300 0.000000
0.000050 0.000310 0.000000
0.000051 0.000320 0.000000
0.000050 0.000329 0.000000
0.000051 0.000340 0.000000
0.000050 0.000351 0.000000
0.000052 0.000360 0.000000
0.000050 0.000370 0.000000
0.000052 0.000380 0.000000
0.000050 0.000390 0.000000
0.000053 0.000399 0.000000
0.000049 0.000411 0.000000
0.000053 0.000419 0.000000
0.000051 0.000430 0.000000
0.000054 0.000441 0.000000
0.000047 0.000451 0.000000
0.000055 0.000458 0.000000
0.000052 0.000470 0.000000
0.000055 0.000482 0.000000
0.000049 0.000488 0.000000
0.000050 0.000498 0.000000
0.000160 0.000608 0.000000
0.000167 0.000576 0.000000
0.000184 0.000632 0.000000
0.000192 0.000649 0.000000
0.000194 0.000662 0.000000
0.000196 0.000672 0.000000
0.000201 0.000677 0.000000
0.000202 0.000688 0.000000
0.000207 0.000702 0.000000
0.000211 0.000711 0.000000
0.000060 0.000300 0.000000
0.000060 0.000310 0.000000
0.000061 0.000320 0.000000
0.000059 0.000331 0.000000
0.000062 0.000341 0.000000
0.000059 0.000350 0.000000
0.000062 0.000360 0.000000
0.000060 0.000370 0.000000
0.000062 0.000380 0.000000
0.000060 0.000391 0.000000
0.000063 0.000401 0.000000
0.000060 0.000410 0.000000
0.000063 0.000420 0.000000
0.000058 0.000431 0.000000
0.000065 0.000438 0.000000
0.000062 0.000450 0.000000
0.000065 0.000460 0.000000
0.000056 0.000471 0.000000
0.000065 0.000476 0.000000
0.000068 0.000487 0.000000
0.000058 0.000496 0.000000
0.000159 0.000600 0.000000
0.000176 0.000615 0.000000
0.000196 0.000632 0.000000
0.000197 0.000644 0.000000
0.000202 0.000656 0.000000
0.000205 0.000667 0.000000
0.000212 0.000683 0.000000
0.000213 0.000691 0.000000
0.000216 0.000699 0.000000
0.000221 0.000708 0.000000
0.000070 0.000300 0.000000
0.000070 0.000310 0.000000
0.000070 0.000320 0.000000
0.000071 0.000329 0.000000
0.000070 0.000339 0.000000
0.000070 0.000350 0.000000
0.000072 0.000361 0.000000
0.000070 0.000370 0.000000
0.000072 0.000380 0.000000
0.000070 0.000389 0.000000
0.000072 0.000399 0.000000
0.000070 0.000410 0.000000
0.000073 0.000421 0.000000
0.000070 0.000429 0.000000
0.000074 0.000441 0.000000
0.000066 0.000451 0.000000
0.000076 0.000458 0.000000
0.000073 0.000470 0.000000
0.000076 0.000485 0.000000
0.000068 0.000496 0.000000
0.000076 0.000496 0.000000
0.000153 0.000506 0.000000
0.000176 0.000605 0.000000
0.000189 0.000621 0.000000
0.000205 0.000641 0.000000
0.000208 0.000654 0.000000
0.000215 0.000665 0.000000
0.000216 0.000675 0.000000
0.000221 0.000684 0.000000
0.000225 0.000696 0.000000
0.000230 0.000705 0.000000
0.000080 0.000300 0.000000
0.000080 0.000310 0.000000
0.000080 0.000320 0.000000
0.000081 0.000331 0.000000
0.000080 0.000341 0.000000
0.000082 0.000350 0.000000
0.000079 0.000359 0.000000
0.000081 0.000369 0.000000
0.000082 0.000380 0.000000
0.000080 0.000391 0.000000
0.000084 0.000401 0.000000
0.000080 0.000410 0.000000
0.000083 0.000419 0.000000
0.000079 0.000431 0.000000
0.000083 0.000440 0.000000
0.000081 0.000449 0.000000
0.000088 0.000464 0.000000
0.000075 0.000470 0.000000
0.000086 0.000473 0.000000
0.000086 0.000483 0.000000
0.000084 0.000496 0.000000
0.000158 0.000586 0.000000
0.000155 0.000577 0.000000
0.000200 0.000626 0.000000
0.000208 0.000633 0.000000
0.000215 0.000650 0.000000
0.000221 0.000660 0.000000
0.000227 0.000669 0.000000
0.000230 0.000684 0.000000
0.000234 0.000692 0.000000
0.000239 0.000701 0.000000
0.000090 0.000300 0.000000
0.000090 0.000310 0.000000
0.000091 0.000320 0.000000
0.000090 0.000330 0.000000
0.000091 0.000339 0.000000
0.000090 0.000349 0.000000
0.000091 0.000361 0.000000
0.000092 0.000371 0.000000
0.000090 0.000380 0.000000
0.000092 0.000389 0.000000
0.000091 0.000399 0.000000
0.000090 0.000411 0.000000
0.000093 0.000421 0.000000
0.000091 0.000429 0.000000
0.000092 0.000440 0.000000
0.000095 0.000455 0.000000
0.000086 0.000454 0.000000
0.000095 0.000470 0.000000
0.000105 0.000480 0.000000
0.000089 0.000495 0.000000
0.000095 0.000495 0.000000
0.000153 0.000525 0.000000
0.000173 0.000596 0.000000
0.000171 0.000587 0.000000
0.000191 0.000609 0.000000
0.000218 0.000643 0.000000
0.000229 0.000657 0.000000
0.000231 0.000671 0.000000
0.000238 0.000678 0.000000
0.000243 0.000688 0.000000
0.000248 0.000697 0.000000
0.000100 0.000300 0.000000
0.000100 0.000310 0.000000
0.000100 0.000320 0.000000
0.000100 0.000330 0.000000
0.000102 0.000341 0.000000
0.000099 0.000351 0.000000
0.000102 0.000359 0.000000
0.000099 0.000369 0.000000
0.000102 0.000380 0.000000
0.000102 0.000391 0.000000
0.000101 0.000402 0.000000
0.000102 0.000409 0.000000
0.000102 0.000419 0.000000
0.000101 0.000431 0.000000
0.000104 0.000441 0.000000
0.000100 0.000447 0.000000
0.000105 0.000460 0.000000
0.000102 0.000469 0.000000
0.000095 0.000482 0.000000
0.000107 0.000491 0.000000
0.000101 0.000494 0.000000
0.000156 0.000555 0.000000
0.000155 0.000573 0.000000
0.000159 0.000566 0.000000
0.000217 0.000633 0.000000
0.000226 0.000643 0.000000
0.000232 0.000649 0.000000
0.000240 0.000663 0.000000
0.000246 0.000671 0.000000
0.000250 0.000684 0.000000
0.000257 0.000693 0.000000
0.000110 0.000300 0.000000
0.000110 0.000310 0.000000
0.000110 0.000320 0.000000
0.000111 0.000330 0.000000
0.000109 0.000339 0.000000
0.000111 0.000349 0.000000
0.000111 0.000361 0.000000
0.000110 0.000371 0.000000
0.000113 0.000380 0.000000
0.000108 0.000389 0.000000
0.000113 0.000398 0.000000
0.000111 0.000410 0.000000
0.000114 0.000422 0.000000
0.000110 0.000428 0.000000
0.000114 0.000439 0.000000
0.000109 0.000451 0.000000
0.000116 0.000461 0.000000
0.000111 0.000470 0.000000
0.000117 0.000480 0.000000
0.000111 0.000493 0.000000
0.000119 0.000492 0.000000
0.000156 0.000522 0.000000
0.000157 0.000529 0.000000
0.000182 0.000595 0.000000
0.000198 0.000617 0.000000
0.000199 0.000606 0.000000
[...]
POINT_DATA 6231
SCALARS density float 1
LOOKUP_TABLE default
4388.953751
4425.050490
4420.451838
4417.005075
4422.488270
4424.208906
4423.531417
4426.917729
4428.398019
4428.506789
4427.203085
4429.800869
4425.408109
4425.786460
4428.739184
4442.608653
4421.691571
4427.258905
4415.641007
4424.841386
4414.073530
4734.258935
4613.714272
4646.699150
4517.378514
4559.497679
4432.193281
4445.174431
4424.551747
4457.646042
4413.274001
4401.871190
4418.687285
4415.634820
4418.560351
4428.217253
4422.085609
4421.441566
4425.016680
4423.055411
4425.683966
4422.396966
4431.205256
4428.720910
4446.734772
4416.530341
4423.497887
4414.624065
4465.999399
4444.388109
4471.069689
4413.709506
4426.866443
4351.325855
4365.964848
4451.460690
4390.275282
4400.717072
4416.555886
4407.890816
4417.919841
4454.384360
4403.829301
4414.379417
4425.637094
4426.363506
4418.059791
4418.386994
4430.229313
4429.601243
4417.506352
4438.243779
4421.583579
4436.568147
4411.711330
4428.530913
4413.982726
4475.504937
4390.972488
4447.328660
4333.161151
4440.043955
4404.308523
4444.292085
4472.715305
4417.013598
4513.078707
4416.686498
4413.133808
4428.337358
4421.975128
4466.918953
4398.724834
4409.600306
4429.761279
4424.206830
4410.984569
4421.689775
4432.388954
4419.825040
4425.737635
4420.925687
4432.109147
4410.189071
4441.391425
4418.700353
4454.049913
4396.382497
4444.608464
4392.370856
4505.312097
4343.300233
4611.712152
4356.863943
4415.590168
4388.964916
4487.989914
4373.519671
4423.755138
4492.885073
4430.640659
4441.516964
4444.217897
4438.387576
4423.873902
4425.561692
4410.019792
4438.248789
4430.559567
4424.997061
4413.936806
4435.764249
4424.527783
4432.979799
4418.749847
4442.714173
4399.337055
4449.997547
4405.486851
4450.013088
4384.091938
4479.455171
4307.867447
4415.336145
4384.303174
4595.482553
4451.330761
4455.974071
4400.818804
4494.878198
4401.388781
4428.032268
4445.335764
4358.527771
4439.151404
4425.754689
4421.465338
4428.135455
4438.689758
4400.885862
4432.026643
4432.525861
4431.729767
4409.458909
4439.078449
4418.436743
4436.417584
4425.942954
4439.055392
4396.639262
4462.209512
4363.601207
4484.847303
4364.405080
4547.289660
4377.533711
4412.346142
4495.418209
4456.052655
4455.350005
4390.697790
4487.521910
4427.555850
4396.027341
4446.571899
4421.122840
4412.826538
4422.428075
4428.600286
4410.808991
4451.031919
4438.687649
4408.297866
4426.170914
4433.522926
4426.489734
4426.029179
4430.601248
4409.747954
4443.080773
4396.687320
4466.164092
4413.472647
4500.623461
4351.380811
4529.498645
4426.624542
4418.701119
4453.164543
4477.848111
4428.748719
4449.456465
4452.050064
4447.176454
4446.335834
4391.590107
4437.711402
4418.112007
4441.864234
4424.540873
4417.977891
4443.713564
4403.303170
4449.166233
4429.938621
4421.619273
4425.339778
4414.767852
4428.293807
4432.475496
4438.288409
4420.570552
4435.687000
4418.500529
4465.188771
4445.503030
4394.405589
4377.991559
4616.284252
4437.977638
4457.947972
4428.311771
4467.206868
4429.237622
4400.570927
4441.777392
4411.235438
4421.826846
4436.103429
4423.072222
4409.875590
4440.875942
4405.412462
4437.342537
4450.019013
4401.274612
4440.768579
4423.823102
4441.222379
4423.133872
4416.598356
4415.384723
4460.010113
4420.641002
4474.871205
4459.993073
4354.905423
4508.384319
4402.812341
4419.859715
4411.965289
4435.732546
4466.933847
4442.421253
4436.652504
4465.408787
4424.579908
4437.101391
4414.026867
4424.778746
4420.568227
4444.476905
4442.841849
4407.891862
4444.654104
4394.862242
4452.236480
4443.531852
4397.269654
4435.936186
4410.055359
4460.326389
4420.394690
4399.571708
4395.684778
4423.590742
4449.841442
4418.864034
4411.715342
4407.381771
4402.328240
4503.123862
4396.029935
4460.574250
4459.006968
4431.204095
4454.120661
4405.542925
4438.803190
4413.846708
4418.192792
4432.360413
4429.689453
4399.041104
4444.666258
4422.110882
4423.159311
4442.235334
4396.925732
4442.420277
4432.832673
4414.245791
4415.553006
4407.688817
4442.244320
4447.303956
4416.750805
4426.935249
4407.602936
4447.713951
4430.579194
4418.301623
4406.920025
4420.904532
4423.820025
4448.129658
4483.050729
4443.550892
4444.561007
4420.094748
4404.089234
4426.955091
4433.198699
4410.349396
4445.707406
4450.885430
4395.462719
4449.607586
4409.626211
4445.399199
4446.710489
4392.219093
4440.441598
4435.049598
4433.432423
4411.446455
4407.487606
4452.903553
4409.849268
4428.467257
4406.886649
4410.817972
4416.552683
4433.504439
4426.243044
4395.781721
4441.908576
4421.216852
4460.174683
4455.998801
4434.538186
4413.807122
4430.242340
4427.495537
4430.160040
4428.438415
4394.038102
4450.723690
4440.432326
4396.426071
4449.157530
4401.450266
4458.406280
4432.078547
4393.364164
4413.242417
4442.329596
4420.406020
4415.514992
4410.100008
4440.950686
4443.723288
4408.928965
4506.206524
4434.227806
4514.450199
4508.303960
4426.799136
4400.640198
4445.181768
4375.421628
4421.086824
4404.874582
4426.215838
4417.971383
4431.433150
4412.296545
4446.000609
4442.800313
4393.661631
4447.535815
4422.503100
4406.891012
4453.832870
4398.253738
4445.674191
4439.701345
4417.861948
4425.680006
4448.432100
4430.088930
4404.981967
4450.255553
4480.855186
4472.967624
4460.233713
4449.078679
4395.993998
4502.484659
4437.691958
4483.910069
4472.104324
4481.816045
4401.475088
4425.047180
4434.662421
4442.325968
4419.005741
4422.597153
4392.684497
4455.530788
4446.759026
4396.548747
4450.053756
4397.898374
4437.895039
4444.080469
4381.993608
4414.137698
4443.267405
4403.816900
4459.691057
4584.408709
4404.718162
4387.216393
4427.187337
4413.916528
4450.115708
4443.951396
4436.409443
4477.760181
4403.189633
4425.347432
4438.144696
4416.485035
4433.957630
4425.043011
4415.806169
4422.992595
4434.039071
4440.279922
4422.609348
4394.694269
4447.779575
4442.058264
4401.172429
4448.434895
4395.705696
4448.043287
4430.994986
4421.289784
4422.511405
4462.039550
4371.025767
4468.747060
4429.653901
4466.098056
4474.476982
4440.572469
4440.658395
4489.400511
4453.306627
4401.783767
4452.121814
4419.235181
4413.423805
4423.361874
4426.141930
4431.241371
4448.101872
4413.183840
4418.154441
4406.656354
4447.654279
4443.468965
4393.216019
4438.960199
4412.246125
4412.662430
4449.846691
4389.823320
4426.763001
4423.068126
4441.857364
4401.743564
4462.324286
4461.473806
4453.733549
4482.853661
4433.862503
4456.314259
4402.398328
4444.394156
4455.949199
4421.985214
4437.237939
4415.188040
4417.154037
4444.189707
4425.633940
4409.373311
4414.974878
4451.623828
4434.750280
4410.029265
4388.198179
4450.364296
4449.611092
4400.315530
4434.336145
4396.367502
4440.795936
4441.730938
4438.122192
4416.729126
4427.376346
4421.251311
4470.039289
4389.825550
4446.714800
4475.754898
4458.287675
4461.953382
4423.906874
4447.449420
4420.641819
4400.917599
4427.078800
4428.641227
4434.611091
4404.728116
4453.255708
4447.481446
4394.528256
4407.169415
4446.116078
4444.412899
4401.805283
4383.069907
4445.856283
4446.588892
4393.222621
4445.131336
4374.811928
4439.031123
4415.703529
4472.160920
4403.762155
4434.436189
4451.174227
4480.120488
4451.566083
4455.634863
4471.488436
4417.955903
4409.788140
4404.746204
4452.057735
4397.723940
4426.251957
4430.225603
4436.438346
4441.081282
4392.522833
4453.599249
4453.564255
4390.693835
4409.705383
4436.074436
4449.854109
4401.330424
4391.243564
4442.715399
4425.363602
4405.002547
4452.889098
4403.003471
4409.872939
4417.036956
4440.668412
4434.484105
4435.595550
4449.939071
4447.326391
4437.404188
4456.266463
4486.465509
4427.660680
4418.097688
4369.109315
4433.271988
4422.335731
4425.000190
4407.394604
4444.226514
4450.159594
4387.549541
4448.704961
4447.463087
4396.275340
4412.190717
4422.610621
4444.010407
4415.800419
4399.637387
4427.398248
4416.328003
4422.433928
4431.287908
4412.040868
4429.950719
4416.910945
4446.951939
4438.103131
4439.508846
4462.666909
4433.630680
4461.311944
4467.311027
4412.252082
4421.058762
4424.384018
4421.065844
4436.707821
4437.936496
4427.186324
4395.071788
4449.048989
4456.192177
4385.271714
4433.640700
4438.777001
4409.247026
4413.292778
4407.043017
4434.558448
4428.089176
4397.973386
4420.842770
4439.524540
4412.458061
4410.890962
4463.732604
4437.742005
4449.702188
4419.688167
4407.830457
4474.341347
4424.901042
4451.091259
4449.390926
4461.747266
4419.298363
4440.323007
4432.353754
4411.473336
4424.430031
4441.826799
4438.545036
4387.112313
4451.724529
4461.234561
4382.335247
4425.266149
4425.885921
4419.891023
4419.715059
4404.097136
4426.916370
4423.323743
4406.223088
4444.228191
4434.713163
4437.088407
4440.206382
4458.190194
4445.906202
4481.101205
4403.821175
4436.282436
4462.547120
4423.967170
4451.435271
4433.242918
4432.701037
4407.910520
4444.752171
4445.548831
4408.141104
4409.939985
4445.467960
4450.094025
4381.159856
4456.226834
4460.429345
4375.965014
4431.992599
4399.076026
4440.567476
4418.337693
4416.667074
4428.260695
4415.584596
4417.715862
4458.110125
4418.992500
4446.427386
4448.625711
4403.977695
4443.213490
4478.220885
4417.197496
4443.542281
4453.549176
4427.694669
4426.033576
4439.707920
4443.551392
4397.982771
4442.461898
4448.569082
4409.491007
4398.945108
4446.743842
4457.622984
4378.978939
4449.325725
4451.806764
4378.750580
4448.514972
4375.223965
4440.767230
4449.286443
4439.245499
4414.248412
4436.339054
4418.423098
4443.497376
4438.548787
4423.366998
4433.332751
4450.136416
4464.033535
4467.235550
4466.151755
4433.076018
4427.494575
4429.275923
4409.319890
4447.063410
4449.575506
4396.021359
4433.095466
4445.703122
4423.428999
4387.484985
4450.271118
4462.788705
4377.478423
4428.882645
4432.375508
4408.979536
4434.327721
4389.132775
4426.644839
4421.448669
4441.384279
4424.921827
4428.428247
4446.861593
4439.827868
4429.595350
4450.671265
4439.274863
4480.744747
4429.799957
4426.504022
4423.362361
4433.878526
4438.776931
4434.642156
4400.868638
4450.936363
4454.792080
4395.561556
4418.934781
4445.881264
4442.915020
4377.066979
4455.267004
4472.241391
4364.918649
4444.077205
4404.583056
4411.625172
4454.171737
4436.748977
4431.435451
4412.655029
4457.407827
4411.952406
4464.661580
4449.997094
4453.676975
4434.859246
4462.322169
4460.471614
4423.198433
4441.461124
4435.493401
4418.634150
4421.785125
4442.723441
4443.198411
4396.308720
4451.968926
4454.465569
4396.537769
4407.983194
4452.475494
4446.274463
4385.494934
4459.593613
4453.427152
4383.593097
4435.627696
4395.383880
4423.980377
4440.163393
4436.900300
4421.253616
4460.230836
4421.476758
4439.885773
4477.622571
4497.016413
4447.226513
4464.713731
4438.535805
4434.119973
4412.314145
4440.923826
4446.100778
4418.448473
4408.987929
4447.204490
4451.006936
4392.059898
4445.900963
4446.870545
4408.592623
4394.328516
4447.768652
4464.768754
4382.441015
4437.311157
4421.112620
4430.902981
4443.762302
4411.977931
4439.396328
4444.892718
4422.826518
4432.738094
4461.481321
4428.169995
4465.343712
4443.163020
4461.313129
4433.766515
4427.258423
4441.755889
4446.924885
4402.699535
4440.887592
4447.149543
4421.177531
4404.663224
4446.245055
4459.930365
4393.148589
4427.525595
4448.305088
4426.283902
4391.795723
4455.584992
4458.378107
4377.370779
4433.619268
4425.198933
4407.352352
4436.797307
4436.434744
4432.110054
4457.069585
4470.507209
4453.964314
4454.824401
4461.359901
4457.274395
4431.755194
4428.468395
4428.185865
4410.844213
4450.104602
4450.516210
4405.028813
4430.102838
4444.333862
4434.562679
4398.002268
4451.742845
4464.870574
4392.626209
4418.530993
4448.399642
4446.776638
4403.980556
4473.315759
4425.306404
4416.968633
4442.497073
4443.962320
4436.922435
4430.979154
4468.607528
4424.777999
4462.403449
4441.105153
4460.153515
4456.093742
4432.535092
4429.052591
4439.175048
4439.518457
4442.285852
4403.688428
4448.549880
4457.041116
4404.890228
4422.659681
4443.012544
4442.727237
4397.970832
4457.076799
4458.267308
4397.058102
4407.871556
4450.282785
4458.247396
4390.496008
4448.732679
4427.541834
4411.626402
4459.409842
4451.153075
4447.180150
4465.567203
4447.693385
4467.436076
4455.276614
4457.525001
4430.897108
4433.351960
4433.831528
4422.937951
4419.429225
4445.928112
4448.829646
4399.619876
4446.349169
4452.739787
4413.352321
4414.774422
4441.481923
4459.214538
4394.228844
4450.908423
4451.662831
4413.289987
4424.901431
4461.677696
4460.325331
4399.345119
4454.278022
4411.833469
4431.178738
4446.056370
4455.513275
4443.891266
4458.018640
4452.503979
4456.299763
4437.157260
4438.836480
4424.021607
4441.488785
4441.018967
4426.039020
4411.022235
4447.292029
4457.633008
4397.578168
4442.950797
4446.260139
4422.885933
4403.752060
4451.328027
4464.134532
4398.000866
4437.453473
4441.712082
4444.906225
4411.561600
4464.853669
4448.560650
4436.089795
4473.953790
4434.952249
4459.791564
4454.028952
4452.473588
4450.156634
4455.623117
4440.368056
4428.215738
4434.898686
4434.673133
4414.933793
4435.699606
4448.254053
4434.256903
4404.296901
4445.180207
4464.647358
4399.206908
4442.856046
4436.880104
4439.175039
4400.213524
4467.137832
4465.725754
4394.918740
4435.176785
4452.596562
4460.939506
4389.440192
4452.002982
4422.510082
4432.680616
4461.864266
4445.467746
4464.480611
4444.949032
4453.048503
4430.538646
4422.104496
4437.994404
4415.841823
4449.730440
4440.553154
4417.803460
4420.847300
4450.581865
4445.137509
4401.132077
4452.240359
4457.849847
4402.984276
4435.417278
4435.152130
4455.145807
4395.977583
4467.117515
4439.050890
4394.696029
4434.340371
4460.869182
4461.547329
4419.490350
4455.803894
4426.184612
4462.927610
4437.218462
4456.794906
4449.567455
4432.014700
4439.666618
4448.326108
4419.257210
4449.406517
4412.335027
4448.874528
4445.286951
4423.763878
4411.272225
4441.156522
4459.450698
4398.418381
4453.831206
4448.563365
4407.491069
4432.249020
4444.262299
4464.044483
4404.202532
4457.249174
4435.696342
4431.855120
4409.383744
4453.855194
4458.015957
4431.826196
4473.479370
4427.557450
4464.224638
4445.484202
4450.409681
4433.743366
4416.524873
4440.773271
4416.546532
4429.068083
4449.292224
4411.486345
4433.579521
4448.970370
4435.181617
4400.391053
4450.700622
4460.922855
4399.275342
4456.807255
4429.715066
4439.953646
4431.256755
4464.676394
4477.085667
4387.151793
4449.898958
4447.809012
4444.936816
4410.477084
4453.741354
4450.311093
4439.827065
4463.033056
4440.056922
4437.841559
4423.189599
4446.555538
4453.146963
4412.491736
4449.967420
4415.204796
4450.516254
4451.914622
4406.939458
4426.571122
4444.670212
4448.082502
4397.413918
4452.281297
4458.653197
4404.117863
4450.336816
4417.067829
4453.383671
4425.932221
4466.160842
4424.275392
4396.876735
4456.114657
4451.994259
4449.006269
4439.768839
4449.288396
4453.257508
4447.570852
4432.229955
4438.389348
4438.644823
4403.899002
4450.790336
4449.731687
4403.487536
4455.297995
4406.216587
4459.804204
4441.152030
4410.871945
4417.269948
4444.827605
4463.114076
4390.487361
4459.361044
4434.334713
4418.823956
4450.329344
4427.144546
4471.173476
4411.843820
4458.170943
4426.667577
4442.437222
4431.166299
4450.078696
4448.454901
4445.109437
4449.684445
4433.899366
4433.894412
4421.498673
4455.134518
4452.847441
4404.743987
4447.958470
4428.686203
4419.374302
4463.435074
4399.966166
4450.892002
4444.899292
4413.999670
4410.425929
4451.724752
4470.305250
4395.020588
4471.311788
4388.674510
4465.623444
4426.690569
4468.229644
4460.069191
4405.915725
4445.485145
4444.339772
4453.243855
4436.344727
4452.013917
4446.029610
4437.786736
4440.321085
4440.236224
4431.305168
4406.492262
4455.966472
4462.763451
4401.845746
4449.026832
4402.405218
4457.232443
4450.103485
4396.000257
4444.740669
4444.406480
4427.557375
4408.027782
4453.916993
4452.230132
4399.082233
4464.804520
4408.709531
4448.323251
4399.294814
4449.309559
4450.573431
4418.227004
4451.705257
4429.173690
4454.210550
4448.625982
4450.812119
4433.207164
4425.349554
4438.457270
4442.214522
4443.594672
4401.820384
4449.879293
4450.088360
4403.349141
4454.640216
4400.733674
4456.887225
4451.627001
4398.843101
4428.304148
4441.539255
4456.473411
4408.314300
4469.627739
4403.999861
4416.489421
4468.022357
4443.343606
4475.757798
4389.922000
4459.383175
4426.567904
4455.333929
4438.411704
4451.254104
4439.399831
4421.935710
4446.499813
4443.393344
4414.634600
4430.174135
4450.705965
4463.081021
4403.051375
4441.086744
4418.019448
4430.053560
4460.419640
4396.537080
4453.870407
4450.212558
4407.506594
4414.052339
4439.247247
4469.096015
4413.771875
4453.865320
4391.892413
4445.470723
4431.973803
4458.897551
4471.464745
4391.425019
4472.349088
4417.419638
4455.310551
4427.285514
4438.446144
4448.006996
4407.285002
4449.461386
4450.543825
4398.918297
4418.541900
4439.694269
4465.916761
4421.510559
4438.615628
4411.767068
4448.166732
4459.814714
4392.458914
4442.151823
4447.901737
4436.860431
4405.969887
4447.929786
4445.481856
4416.453683
4454.308452
4443.649388
4436.219571
4434.496929
4454.292738
4455.280950
4433.895246
4457.303996
4437.834447
4442.478203
4412.658936
4450.548207
4449.642807
4407.304561
4437.050634
4463.632020
4437.033523
4411.602735
4416.006633
4447.177697
4424.354510
4441.185424
4406.775327
4461.744674
4463.773907
4396.372362
4434.024416
4446.622071
4453.565833
4416.811090
4440.960207
4416.354125
4455.706340
4420.612104
4446.714917
4451.345888
4433.001631
4456.694936
4441.656094
4438.852102
4428.912129
4434.838327
4449.593385
4405.425353
4454.914835
4462.257013
4392.960992
4418.629216
4462.442843
4459.292051
4421.930413
4425.302655
4432.177823
4437.751055
4440.645917
4405.146840
4471.073141
4442.354225
4397.445416
4430.226706
4439.126066
4484.126769
4407.134483
4455.059407
4433.674607
4449.771900
4423.317419
4438.524338
4459.915835
4440.077592
4433.165311
4438.833819
4440.606487
4419.863664
4434.367886
4452.531533
4404.407613
4456.836715
4460.622130
4399.310852
4413.685627
4434.673317
4451.887618
4421.232961
4435.508557
4420.590016
4445.359331
4448.398681
4403.646288
4461.652981
4432.255431
4423.018856
4415.244957
4453.865403
4410.954429
4428.499205
4423.895632
4451.451203
4455.242027
4443.162011
4449.276381
4441.485892
4435.638095
4421.926594
4438.479902
4447.920382
4404.407023
4448.233207
4450.817888
4409.658983
4423.950151
4472.316518
4446.457878
4411.808406
4421.114816
4437.132015
4431.692360
4434.278976
4415.209313
4454.839328
4458.463030
4395.775805
4460.942072
4426.660533
4458.054267
4419.581613
4447.833032
4423.484868
4419.705886
4431.400291
4434.097515
4449.539025
4434.894773
4424.906048
4448.099242
4435.769489
4420.801290
4433.653314
4453.799070
4400.861095
4461.063916
4466.049003
4387.218238
4403.049226
4461.413117
4457.292064
4413.367923
4436.220018
4419.414168
4446.035260
4436.096313
4419.791283
4455.597009
4433.329836
4424.024150
4442.235714
4459.902159
4432.736781
4439.827750
4440.426088
4437.515761
4452.097585
4451.147934
4438.008071
4433.846305
4438.542316
4417.871040
4444.312944
4443.425422
4410.182022
4441.620768
4446.379639
4409.439032
4450.723746
4472.374331
4412.707569
4410.885696
4443.368531
4447.176611
4415.816262
4444.286509
4417.727759
4446.200381
4449.717445
4414.024187
4443.473527
4456.345065
4431.937555
4431.401753
4454.544130
4413.952090
4448.502171
4434.787565
4442.792154
4433.957840
4431.371716
4426.084190
4445.528280
4436.079191
4414.558804
4439.746400
4447.626301
4400.593336
4449.276120
4451.698788
4407.688316
4405.878699
4460.224015
4452.306358
4400.651525
4444.166748
4428.507936
4435.381427
4442.186386
4411.998015
4455.691651
4452.106039
4415.011503
4436.427783
4445.119993
4449.149984
4435.910210
4447.898668
4445.606606
4447.996739
4428.088873
4440.215134
4437.505416
4428.846116
4418.225043
4450.085721
4441.041184
4415.654214
4438.273552
4446.702670
4405.082467
4453.942198
4474.358524
4396.617304
4403.440057
4452.868179
4452.989141
4404.168818
4442.247451
4417.097098
4448.189607
4443.730080
4409.978927
4449.090430
4447.005910
4411.792895
4438.538159
4444.922062
4440.317975
4439.943430
4448.982708
4436.883164
4437.262999
4416.998715
4440.314303
4441.837507
4424.977871
4408.055319
4450.568699
4449.735692
4408.040232
4436.047825
4445.640400
4412.687218
4436.551350
4465.899955
4423.650010
4410.473292
4445.158675