# vtk DataFile Version 2.0
mfree iwf
ASCII

DATASET UNSTRUCTURED_GRID
POINTS 6231 float
0.000000 0.000300 0.000000
0.000000 0.000310 0.000000
0.000000 0.000320 0.000000
0.000000 0.000330 0.000000
0.000000 0.000340 0.000000
0.000000 0.000350 0.000000
0.000001 0.000360 0.000000
0.000001 0.000370 0.000000
0.000001 0.000380 0.000000
0.000001 0.000390 0.000000
0.000001 0.000400 0.000000
0.000001 0.000410 0.000000
0.000001 0.000420 0.000000
0.000001 0.000430 0.000000
0.000001 0.000440 0.000000
0.000002 0.000451 0.000000
0.000002 0.000460 0.000000
0.000002 0.000471 0.000000
0.000002 0.000480 0.000000
0.000002 0.000492 0.000000
0.000006 0.000501 0.000000
0.000550 0.000822 0.000000
0.000608 0.000878 0.000000
0.000563 0.000834 0.000000
0.000619 0.000887 0.000000
0.000638 0.000898 0.000000
0.000684 0.000916 0.000000
0.000692 0.000917 0.000000
0.000705 0.000915 0.000000
0.000718 0.000917 0.000000
0.000751 0.000925 0.000000
0.000010 0.000300 0.000000
0.000010 0.000310 0.000000
0.000010 0.000320 0.000000
0.000010 0.000330 0.000000
0.000010 0.000340 0.000000
0.000010 0.000350 0.000000
0.000011 0.000360 0.000000
0.000011 0.000370 0.000000
0.000011 0.000380 0.000000
0.000011 0.000390 0.000000
0.000011 0.000400 0.000000
0.000011 0.000410 0.000000
0.000011 0.000420 0.000000
0.000011 0.000430 0.000000
0.000012 0.000440 0.000000
0.000012 0.000451 0.000000
0.000012 0.000460 0.000000
0.000012 0.000472 0.000000
0.000013 0.000478 0.000000
0.000010 0.000492 0.000000
0.000013 0.000498 0.000000
0.000657 0.000901 0.000000
0.000671 0.000905 0.000000
0.000679 0.000908 0.000000
0.000686 0.000908 0.000000
0.000703 0.000907 0.000000
0.000714 0.000909 0.000000
0.000728 0.000909 0.000000
0.000739 0.000913 0.000000
0.000745 0.000913 0.000000
0.000747 0.000920 0.000000
0.000020 0.000300 0.000000
0.000020 0.000310 0.000000
0.000020 0.000320 0.000000
0.000020 0.000330 0.000000
0.000020 0.000340 0.000000
0.000020 0.000351 0.000000
0.000021 0.000360 0.000000
0.000021 0.000370 0.000000
0.000020 0.000380 0.000000
0.000021 0.000390 0.000000
0.000021 0.000400 0.000000
0.000022 0.000410 0.000000
0.000021 0.000420 0.000000
0.000022 0.000431 0.000000
0.000020 0.000440 0.000000
0.000024 0.000451 0.000000
0.000021 0.000460 0.000000
0.000022 0.000470 0.000000
0.000021 0.000481 0.000000
0.000024 0.000494 0.000000
0.000020 0.000497 0.000000
0.000629 0.000881 0.000000
0.000655 0.000895 0.000000
0.000664 0.000900 0.000000
0.000670 0.000898 0.000000
0.000681 0.000895 0.000000
0.000695 0.000902 0.000000
0.000722 0.000904 0.000000
0.000736 0.000907 0.000000
0.000746 0.000901 0.000000
0.000754 0.000901 0.000000
0.000030 0.000300 0.000000
0.000030 0.000310 0.000000
0.000030 0.000320 0.000000
0.000030 0.000330 0.000000
0.000030 0.000340 0.000000
0.000030 0.000349 0.000000
0.000031 0.000359 0.000000
0.000030 0.000370 0.000000
0.000031 0.000380 0.000000
0.000031 0.000390 0.000000
0.000031 0.000400 0.000000
0.000031 0.000411 0.000000
0.000031 0.000420 0.000000
0.000032 0.000430 0.000000
0.000032 0.000440 0.000000
0.000030 0.000450 0.000000
0.000032 0.000459 0.000000
0.000036 0.000473 0.000000
0.000030 0.000478 0.000000
0.000033 0.000488 0.000000
0.000032 0.000497 0.000000
0.000063 0.000500 0.000000
0.000650 0.000888 0.000000
0.000667 0.000885 0.000000
0.000693 0.000894 0.000000
0.000703 0.000889 0.000000
0.000706 0.000900 0.000000
0.000714 0.000894 0.000000
0.000724 0.000894 0.000000
0.000732 0.000896 0.000000
0.000755 0.000893 0.000000
0.000040 0.000300 0.000000
0.000040 0.000310 0.000000
0.000040 0.000320 0.000000
0.000040 0.000329 0.000000
0.000040 0.000340 0.000000
0.000041 0.000351 0.000000
0.000040 0.000361 0.000000
0.000041 0.000370 0.000000
0.000041 0.000380 0.000000
0.000040 0.000390 0.000000
0.000042 0.000399 0.000000
0.000041 0.000410 0.000000
0.000042 0.000420 0.000000
0.000040 0.000431 0.000000
0.000043 0.000439 0.000000
0.000043 0.000450 0.000000
0.000043 0.000460 0.000000
0.000037 0.000469 0.000000
0.000045 0.000477 0.000000
0.000043 0.000496 0.000000
0.000040 0.000498 0.000000
0.000500 0.000653 0.000000
0.000659 0.000881 0.000000
0.000677 0.000885 0.000000
0.000686 0.000883 0.000000
0.000691 0.000889 0.000000
0.000713 0.000883 0.000000
0.000736 0.000887 0.000000
0.000738 0.000877 0.000000
0.000745 0.000892 0.000000
0.000755 0.000884 0.000000
0.000050 0.000300 0.000000
0.000050 0.000310 0.000000
0.000050 0.000320 0.000000
0.000049 0.000331 0.000000
0.000051 0.000340 0.000000
0.000050 0.000349 0.000000
0.000051 0.000359 0.000000
0.000050 0.000370 0.000000
0.000052 0.000380 0.000000
0.000050 0.000390 0.000000
0.000053 0.000400 0.000000
0.000049 0.000411 0.000000
0.000053 0.000419 0.000000
0.000051 0.000430 0.000000
0.000054 0.000440 0.000000
0.000047 0.000451 0.000000
0.000055 0.000458 0.000000
0.000053 0.000470 0.000000
0.000056 0.000483 0.000000
0.000049 0.000488 0.000000
0.000050 0.000498 0.000000
0.000644 0.000893 0.000000
0.000606 0.000868 0.000000
0.000673 0.000878 0.000000
0.000691 0.000872 0.000000
0.000704 0.000878 0.000000
0.000720 0.000883 0.000000
0.000714 0.000873 0.000000
0.000728 0.000881 0.000000
0.000745 0.000880 0.000000
0.000754 0.000872 0.000000
0.000060 0.000300 0.000000
0.000060 0.000310 0.000000
0.000060 0.000321 0.000000
0.000060 0.000329 0.000000
0.000061 0.000340 0.000000
0.000059 0.000351 0.000000
0.000062 0.000360 0.000000
0.000059 0.000370 0.000000
0.000063 0.000381 0.000000
0.000059 0.000390 0.000000
0.000063 0.000400 0.000000
0.000060 0.000409 0.000000
0.000064 0.000419 0.000000
0.000057 0.000430 0.000000
0.000066 0.000439 0.000000
0.000060 0.000449 0.000000
0.000066 0.000460 0.000000
0.000055 0.000472 0.000000
0.000065 0.000475 0.000000
0.000068 0.000486 0.000000
0.000058 0.000496 0.000000
0.000635 0.000889 0.000000
0.000650 0.000879 0.000000
0.000669 0.000866 0.000000
0.000681 0.000871 0.000000
0.000699 0.000865 0.000000
0.000707 0.000862 0.000000
0.000735 0.000866 0.000000
0.000724 0.000870 0.000000
0.000744 0.000868 0.000000
0.000754 0.000863 0.000000
0.000070 0.000300 0.000000
0.000070 0.000310 0.000000
0.000070 0.000319 0.000000
0.000070 0.000331 0.000000
0.000071 0.000340 0.000000
0.000070 0.000350 0.000000
0.000072 0.000357 0.000000
0.000068 0.000371 0.000000
0.000073 0.000377 0.000000
0.000070 0.000390 0.000000
0.000073 0.000400 0.000000
0.000068 0.000412 0.000000
0.000074 0.000421 0.000000
0.000069 0.000429 0.000000
0.000074 0.000439 0.000000
0.000066 0.000452 0.000000
0.000077 0.000459 0.000000
0.000073 0.000470 0.000000
0.000076 0.000486 0.000000
0.000068 0.000496 0.000000
0.000076 0.000496 0.000000
0.000499 0.000631 0.000000
0.000639 0.000877 0.000000
0.000662 0.000872 0.000000
0.000686 0.000857 0.000000
0.000700 0.000874 0.000000
0.000717 0.000861 0.000000
0.000726 0.000865 0.000000
0.000725 0.000853 0.000000
0.000743 0.000858 0.000000
0.000753 0.000853 0.000000
0.000080 0.000300 0.000000
0.000080 0.000310 0.000000
0.000080 0.000321 0.000000
0.000080 0.000330 0.000000
0.000080 0.000341 0.000000
0.000082 0.000351 0.000000
0.000078 0.000363 0.000000
0.000082 0.000370 0.000000
0.000080 0.000384 0.000000
0.000078 0.000391 0.000000
0.000087 0.000397 0.000000
0.000080 0.000408 0.000000
0.000084 0.000418 0.000000
0.000079 0.000430 0.000000
0.000087 0.000445 0.000000
0.000077 0.000447 0.000000
0.000086 0.000463 0.000000
0.000074 0.000470 0.000000
0.000087 0.000473 0.000000
0.000085 0.000482 0.000000
0.000084 0.000495 0.000000
0.000626 0.000885 0.000000
0.000599 0.000872 0.000000
0.000672 0.000857 0.000000
0.000682 0.000865 0.000000
0.000696 0.000856 0.000000
0.000705 0.000851 0.000000
0.000713 0.000851 0.000000
0.000734 0.000852 0.000000
0.000743 0.000848 0.000000
0.000752 0.000843 0.000000
0.000090 0.000300 0.000000
0.000090 0.000310 0.000000
0.000090 0.000320 0.000000
0.000090 0.000329 0.000000
0.000091 0.000340 0.000000
0.000090 0.000348 0.000000
0.000091 0.000359 0.000000
0.000090 0.000368 0.000000
0.000090 0.000379 0.000000
0.000092 0.000388 0.000000
0.000085 0.000407 0.000000
0.000094 0.000408 0.000000
0.000089 0.000425 0.000000
0.000096 0.000426 0.000000
0.000088 0.000436 0.000000
0.000097 0.000455 0.000000
0.000086 0.000454 0.000000
0.000097 0.000471 0.000000
0.000106 0.000480 0.000000
0.000089 0.000495 0.000000
0.000094 0.000495 0.000000
0.000502 0.000671 0.000000
0.000635 0.000871 0.000000
0.000622 0.000873 0.000000
0.000653 0.000870 0.000000
0.000687 0.000846 0.000000
0.000709 0.000842 0.000000
0.000723 0.000845 0.000000
0.000731 0.000841 0.000000
0.000742 0.000838 0.000000
0.000751 0.000833 0.000000
0.000100 0.000300 0.000000
0.000100 0.000310 0.000000
0.000100 0.000320 0.000000
0.000100 0.000331 0.000000
0.000101 0.000340 0.000000
0.000099 0.000351 0.000000
0.000102 0.000361 0.000000
0.000099 0.000372 0.000000
0.000102 0.000381 0.000000
0.000099 0.000391 0.000000
0.000101 0.000399 0.000000
0.000103 0.000409 0.000000
0.000100 0.000418 0.000000
0.000100 0.000436 0.000000
0.000110 0.000444 0.000000
0.000097 0.000445 0.000000
0.000107 0.000460 0.000000
0.000098 0.000467 0.000000
0.000095 0.000481 0.000000
0.000106 0.000491 0.000000
0.000101 0.000494 0.000000
0.000567 0.000839 0.000000
0.000574 0.000846 0.000000
0.000595 0.000867 0.000000
0.000679 0.000850 0.000000
0.000696 0.000844 0.000000
0.000702 0.000835 0.000000
0.000723 0.000835 0.000000
0.000715 0.000830 0.000000
0.000738 0.000831 0.000000
0.000749 0.000824 0.000000
0.000110 0.000300 0.000000
0.000110 0.000310 0.000000
0.000110 0.000320 0.000000
0.000110 0.000329 0.000000
0.000110 0.000339 0.000000
0.000111 0.000350 0.000000
0.000109 0.000358 0.000000
0.000111 0.000369 0.000000
0.000110 0.000378 0.000000
0.000111 0.000389 0.000000
0.000111 0.000400 0.000000
0.000111 0.000412 0.000000
0.000115 0.000422 0.000000
0.000107 0.000427 0.000000
0.000112 0.000433 0.000000
0.000106 0.000449 0.000000
0.000115 0.000461 0.000000
0.000111 0.000471 0.000000
0.000116 0.000480 0.000000
0.000111 0.000493 0.000000
0.000119 0.000492 0.000000
0.000529 0.000779 0.000000
0.000504 0.000693 0.000000
0.000630 0.000864 0.000000
0.000655 0.000859 0.000000
0.000645 0.000853 0.000000
[...]
POINT_DATA 6231
SCALARS density float 1
LOOKUP_TABLE default
4407.752610
4424.172703
4420.984241
4422.896383
4427.080646
4426.628177
4421.597150
4423.089551
4428.878575
4428.633579
4426.587646
4430.938520
4426.882643
4429.998238
4431.749412
4441.046175
4423.678336
4431.202920
4412.679852
4424.080762
4411.310269
4423.880355
4424.603324
4431.372976
4440.229911
4417.982791
4401.823781
4434.930501
4450.004822
4452.365101
4421.139862
4411.794349
4421.428142
4427.075625
4424.776898
4422.311293
4423.459756
4426.646819
4429.855325
4426.249515
4429.930439
4422.928795
4433.185155
4425.488895
4437.411553
4416.928775
4424.870587
4409.775144
4446.221727
4460.863493
4460.057396
4416.509330
4407.245287
4406.696050
4428.835095
4503.087947
4394.520705
4402.687456
4425.122738
4412.869025
4463.023168
4451.088872
4416.259433
4428.954106
4424.442284
4421.139746
4428.657390
4424.755239
4425.571966
4435.449980
4414.000019
4433.411319
4427.153512
4431.533170
4420.003595
4438.226243
4412.461307
4480.912922
4399.262007
4452.043868
4352.192851
4449.328416
4420.812593
4420.763062
4430.168950
4411.431327
4525.516899
4331.765823
4362.138075
4424.773185
4412.569052
4410.882608
4400.923282
4424.365102
4428.575760
4420.226564
4431.934314
4433.785753
4433.884332
4423.668533
4421.327305
4430.036230
4436.762266
4411.459604
4439.439895
4414.356531
4448.505172
4401.440286
4434.087642
4386.282464
4459.001797
4368.205176
4556.821124
4370.293852
4430.508242
4456.011780
4421.821432
4491.143471
4348.451704
4491.923462
4460.716171
4394.190309
4495.692948
4449.653870
4430.029503
4425.487397
4432.645296
4439.067079
4414.034638
4427.173672
4434.872928
4435.647481
4425.109003
4427.785574
4412.743798
4454.069837
4404.588574
4444.601887
4414.591703
4447.031647
4389.424894
4509.781958
4308.700214
4419.922469
4383.809315
4432.508412
4423.105345
4411.510136
4437.024206
4471.391241
4440.280996
4398.004370
4491.530361
4427.091240
4420.513489
4424.881199
4425.172576
4428.408937
4421.176520
4440.492321
4450.320672
4408.185239
4433.940143
4411.079592
4444.917886
4427.448516
4425.665610
4414.610794
4454.860207
4371.922449
4481.546785
4361.602884
4475.089903
4360.398455
4535.515790
4383.114094
4446.555557
4426.059243
4452.601738
4403.386461
4436.469437
4435.471436
4391.792527
4386.252818
4409.967766
4415.437352
4424.779608
4442.249969
4427.184201
4437.428150
4420.227085
4423.582526
4425.794359
4448.216823
4417.553962
4437.252949
4417.100770
4444.911481
4423.710148
4427.428731
4423.015933
4465.029452
4405.976392
4518.201178
4376.460932
4483.086659
4432.177812
4417.883928
4391.359322
4411.176734
4464.977075
4467.271629
4428.001390
4399.011830
4432.815186
4423.243103
4427.657382
4430.282363
4429.648826
4406.213697
4443.198452
4423.273611
4444.800774
4438.666682
4425.667458
4416.687920
4448.312836
4391.734245
4423.667694
4410.822767
4441.214201
4432.124263
4451.382363
4438.797797
4452.853526
4447.369845
4411.932947
4389.371288
4568.367727
4456.085587
4444.238692
4456.037004
4425.678486
4419.711198
4468.241924
4433.561857
4452.252619
4413.154993
4424.054914
4429.325190
4435.406095
4421.956714
4411.994551
4421.952254
4409.910300
4438.413436
4442.239142
4431.627935
4406.896087
4445.137974
4403.520165
4441.958227
4471.589955
4393.699060
4457.483738
4451.074006
4359.541985
4466.293828
4414.063387
4431.317450
4413.456812
4424.627657
4437.637016
4383.902269
4451.490944
4432.878691
4404.968001
4436.760390
4434.751887
4427.090735
4425.127820
4433.111845
4415.582518
4436.582894
4448.631353
4408.777694
4454.901464
4404.796927
4436.148532
4459.897735
4396.342108
4432.062138
4463.414820
4415.055290
4381.275741
4436.606776
4436.884056
4429.053921
4426.007345
4415.541083
4420.682674
4436.616771
4426.250396
4472.119251
4417.965472
4384.984497
4446.216546
4447.322316
4428.080085
4418.662546
4429.626605
4427.557608
4425.815488
4439.037033
4415.895001
4416.102144
4435.071817
4405.090628
4439.226013
4437.351484
4428.892567
4447.953799
4419.836011
4383.176335
4447.033306
4448.182976
4418.323941
4465.311169
4412.540647
4437.967779
4418.976900
4424.015019
4431.147201
4421.089633
4420.813668
4470.981888
4384.773040
4392.111026
4471.030853
4443.370470
4423.299874
4425.963738
4439.711258
4428.842746
4428.961689
4431.532613
4426.491073
4444.671123
4426.907098
4443.673613
4413.164005
4414.600011
4455.038028
4387.852694
4445.889201
4432.530733
4436.221818
4464.914687
4389.281460
4460.596599
4401.508144
4410.874385
4428.517595
4434.652270
4429.235693
4396.095629
4428.668623
4462.615951
4462.857833
4416.287711
4423.812588
4451.611574
4432.940800
4428.422574
4421.177469
4426.018603
4432.294747
4424.957824
4402.566789
4444.659572
4403.049600
4451.409440
4443.710949
4404.940516
4441.222044
4427.617227
4437.189806
4367.673447
4438.901456
4389.598938
4428.006034
4434.189562
4392.236482
4441.356416
4413.804664
4426.709270
4451.985582
4451.995402
4394.780211
4333.736316
4463.188989
4387.623697
4415.015452
4436.938286
4433.031462
4434.758980
4445.252579
4413.089486
4433.976554
4432.952077
4431.964178
4427.442672
4408.860755
4408.585442
4416.846806
4454.601928
4423.176247
4409.144823
4445.114519
4400.405040
4457.535300
4494.843026
4419.271029
4434.191146
4432.630654
4409.507872
4416.158424
4421.749703
4433.305973
4423.621402
4481.837604
4479.086204
4482.091686
4451.571329
4434.542021
4435.811649
4426.945922
4412.992251
4438.798100
4423.309107
4425.567690
4406.346824
4454.120950
4419.363009
4439.960782
4445.396894
4410.050238
4428.460138
4433.543675
4388.875680
4415.170231
4508.632873
4569.003231
4385.163519
4375.742469
4419.705056
4416.840763
4460.899019
4466.936054
4393.609517
4447.366111
4409.626966
4407.025572
4406.110520
4448.495417
4434.463748
4433.138975
4436.697087
4438.401948
4431.792631
4411.721632
4433.978904
4449.556399
4411.869949
4411.980114
4437.812726
4419.808378
4449.166459
4426.515453
4450.861531
4414.760327
4489.797301
4356.865302
4331.272336
4482.830929
4394.854293
4412.361472
4439.437924
4418.140003
4491.511406
4441.864611
4418.612401
4429.947237
4396.791298
4421.655599
4411.478183
4434.611534
4426.572743
4430.209885
4415.292364
4439.660565
4429.685356
4418.312737
4419.048142
4444.449067
4440.580651
4424.889384
4413.657210
4438.316375
4388.827983
4429.935854
4441.229509
4396.852573
4485.783096
4480.223460
4420.483389
4406.969616
4424.164003
4447.002115
4418.287943
4373.490555
4450.945362
4445.212834
4418.412900
4399.349117
4436.263847
4428.464469
4434.462284
4430.327809
4440.107998
4437.070624
4433.339597
4423.464368
4438.210679
4433.084500
4414.555812
4409.024894
4447.455670
4425.795376
4421.450497
4460.583067
4416.116353
4441.039140
4375.603099
4489.487546
4348.616034
4368.772149
4423.859957
4428.823992
4437.112202
4438.295128
4397.199982
4441.137467
4413.303264
4442.845138
4466.555876
4424.100852
4433.817103
4436.208304
4427.132340
4422.376416
4430.839793
4434.270522
4431.890995
4425.587460
4419.428063
4441.796290
4446.691452
4416.520944
4429.698118
4423.884464
4421.012220
4391.953138
4462.667577
4357.346991
4459.988967
4406.193089
4444.463434
4384.314671
4429.218042
4428.929105
4445.162065
4459.370229
4405.882561
4463.282753
4458.294425
4410.492631
4429.345969
4421.937849
4430.783549
4421.494959
4442.022560
4435.342863
4428.382046
4434.137677
4429.461249
4441.331005
4400.523831
4418.443723
4421.645563
4451.969131
4409.346649
4443.645434
4432.320536
4452.392974
4382.447212
4455.045734
4433.327557
4586.589913
4368.706995
4476.447683
4440.559513
4435.053798
4439.457035
4394.476394
4455.644848
4404.653283
4423.347267
4442.690060
4402.848389
4429.870874
4432.400136
4429.286504
4412.975483
4436.978423
4426.147470
4423.552396
4424.835167
4434.508818
4443.341244
4418.920871
4417.864791
4422.142272
4411.032794
4402.953199
4469.160773
4457.402184
4476.034910
4358.508244
4380.725257
4524.057303
4409.078572
4427.759042
4449.122306
4438.719113
4380.726714
4422.751355
4442.017005
4458.584986
4407.375942
4392.069535
4430.666923
4434.004301
4426.837098
4436.731240
4441.398488
4418.283134
4430.735587
4419.026878
4419.100676
4416.542743
4425.695004
4418.021581
4461.720901
4441.569350
4421.480752
4438.758517
4423.393556
4445.818667
4393.402062
4462.156899
4408.472945
4444.361426
4411.686262
4417.901629
4434.068389
4422.930770
4404.403186
4457.627365
4348.700431
4400.438474
4452.907813
4430.726272
4427.920190
4429.225967
4429.409416
4408.217431
4434.947203
4418.347284
4442.098713
4429.763303
4430.525349
4429.419947
4389.607394
4459.651332
4396.138036
4393.070895
4453.865644
4377.690065
4392.877436
4444.286520
4447.345166
4421.319382
4424.626120
4440.340253
4433.997217
4412.078557
4438.207965
4487.952992
4376.271821
4507.984844
4345.408597
4446.575394
4431.618659
4430.470886
4432.151673
4430.648925
4433.096382
4448.830560
4402.274618
4415.758716
4396.759573
4443.975762
4400.738905
4444.567618
4447.788311
4449.239497
4450.210683
4414.699666
4450.167741
4428.472145
4395.092287
4444.573962
4423.757002
4423.899112
4465.034570
4397.425511
4438.322141
4468.573916
4430.949970
4371.121091
4455.801196
4444.474702
4450.254407
4429.205700
4427.322192
4427.710009
4422.516993
4417.270015
4414.883068
4443.331983
4440.874441
4420.433890
4436.539899
4406.991549
4439.699914
4397.005298
4416.736425
4393.834662
4405.940163
4403.331530
4456.010107
4439.546157
4490.459466
4405.689535
4416.989021
4443.494774
4397.326338
4437.747467
4446.234424
4450.553296
4450.498054
4450.053729
4429.824055
4456.748935
4430.430184
4429.326493
4429.168512
4435.399617
4432.619244
4439.417133
4402.390050
4406.238177
4422.252711
4431.699421
4430.208455
4439.204974
4436.821291
4436.940684
4441.784213
4467.053215
4388.134156
4468.169329
4364.285665
4411.410258
4433.220456
4407.957112
4446.070194
4426.559109
4412.553266
4400.334108
4435.171011
4427.551325
4410.732563
4414.109739
4415.555165
4422.928838
4435.256967
4422.733855
4421.865011
4408.648439
4429.261552
4426.631609
4437.565668
4442.223256
4400.041062
4426.673960
4414.886700
4423.476882
4423.338119
4411.815470
4431.828565
4424.890278
4458.365486
4407.829331
4450.755410
4426.916187
4520.158164
4411.916168
4368.496490
4458.271491
4453.954626
4425.210111
4429.232323
4500.005578
4401.201939
4445.782809
4427.925130
4437.669002
4419.828320
4437.867918
4446.719601
4419.930506
4437.990798
4403.902848
4411.098339
4446.793489
4424.934641
4437.023214
4406.911625
4448.460321
4393.517108
4452.089462
4397.090311
4472.284741
4405.370786
4425.846337
4420.358464
4419.916824
4423.010825
4432.451302
4449.000926
4407.330692
4436.390862
4436.547136
4421.044083
4386.600452
4434.233810
4429.133802
4427.533057
4426.783710
4422.288886
4418.312750
4436.473571
4418.973354
4445.283099
4430.070491
4418.658357
4392.981544
4452.936771
4422.504428
4448.456046
4431.294819
4422.655200
4402.505741
4448.176361
4433.937382
4431.844859
4407.469380
4404.621928
4417.623502
4422.427720
4481.266788
4377.046350
4437.382822
4428.083274
4370.318954
4433.024216
4409.780359
4425.959430
4425.751617
4435.993196
4437.503530
4432.175030
4440.703368
4404.911652
4442.781552
4393.030770
4436.009791
4457.362001
4406.608393
4426.684679
4400.337272
4449.018648
4419.125245
4417.795729
4355.769268
4382.330839
4466.065280
4441.534810
4405.042914
4403.994542
4399.132979
4467.152738
4421.251942
4402.348942
4457.679337
4444.685266
4431.378275
4455.097427
4435.495340
4435.836404
4417.289813
4425.849861
4417.654560
4427.874492
4436.515916
4415.812572
4439.624612
4414.412291
4403.528592
4431.273717
4439.781225
4421.872873
4441.800748
4425.896658
4419.355438
4482.650351
4462.972744
4436.359242
4445.469119
4531.582349
4425.272044
4416.012011
4443.473309
4442.297162
4394.577295
4428.492792
4415.814330
4421.774028
4415.614555
4425.920373
4429.912834
4433.670381
4444.467563
4436.163296
4424.770189
4439.458213
4407.155627
4444.939791
4430.097028
4425.583978
4418.954670
4421.795148
4422.781657
4415.888312
4438.273221
4395.985678
4442.373318
4387.312258
4378.731930
4432.617052
4436.189612
4457.420429
4472.212689
4475.685198
4420.380599
4437.754257
4422.551329
4464.295130
4350.100012
4416.673116
4430.708153
4428.140916
4433.471937
4403.823489
4439.004240
4436.679110
4405.372967
4448.029059
4399.161756
4412.446117
4459.038751
4416.453757
4429.928991
4447.551419
4427.526936
4436.739267
4417.357560
4381.192592
4467.793873
4464.763971
4447.849756
4400.870292
4405.943149
4456.528939
4379.756174
4428.516463
4389.354794
4468.071512
4425.888217
4452.586117
4424.329625
4441.457376
4429.879967
4429.456229
4442.212017
4436.844118
4415.040339
4414.744584
4428.020168
4424.333376
4450.185405
4385.434536
4457.645706
4410.856948
4419.632283
4383.724674
4434.040637
4452.196206
4465.005243
4346.142327
4470.540929
4459.451117
4456.934697
4470.563989
4437.047378
4470.594428
4405.899726
4446.296792
4446.093185
4402.148395
4393.555371
4438.974861
4431.874393
4427.425912
4421.189962
4417.884634
4416.699100
4448.299905
4392.406615
4428.216811
4393.069906
4448.781885
4399.372411
4447.231915
4391.757298
4462.120299
4426.110711
4425.724562
4383.944515
4448.100907
4310.501573
4498.442734
4569.984431
4422.346731
4404.727170
4457.467144
4424.314654
4378.638587
4438.804542
4486.301498
4353.091067
4452.145117
4447.029706
4428.101445
4436.391412
4434.026236
4429.454637
4434.708906
4434.164235
4428.367867
4439.204854
4458.227612
4408.216441
4398.858464
4417.391413
4441.330432
4419.455744
4396.326610
4457.846080
4386.348124
4450.817579
4453.580667
4504.923456
4429.044570
4421.880278
4387.952677
4426.613475
4398.675355
4421.697670
4433.061977
4462.751846
4440.235428
4377.668093
4453.813769
4421.370488
4428.846090
4423.018584
4425.007802
4411.213450
4435.269634
4425.086125
4401.027576
4382.046674
4452.281290
4450.506377
4432.689659
4408.573512
4441.347633
4440.574012
4433.557718
4441.721834
4446.552623
4443.332435
4474.009568
4645.937840
4453.743743
4589.177529
4432.405727
4441.473861
4432.551143
4439.504653
4434.494117
4452.494627
4423.226317
4417.187956
4424.985932
4437.705618
4424.386538
4435.395504
4420.262659
4427.214394
4438.578101
4462.233684
4434.789473
4417.088087
4387.361568
4410.921390
4443.147636
4433.357090
4386.515523
4426.647641
4415.267633
4408.148206
4421.392862
4423.563453
4398.224290
4423.944148
4437.248298
4424.770542
4454.008048
4451.790101
4415.313134
4391.531900
4480.693446
4463.640289
4414.597688
4424.347142
4432.039145
4399.748047
4430.409197
4419.780287
4432.336478
4399.996868
4450.102744
4416.332384
4446.001695
4428.812065
4442.129354
4417.798934
4446.593568
4440.966023
4446.690917
4401.684366
4426.507236
4465.748687
4457.452040
4424.117583
4449.819467
4397.732002
4470.522167
4441.590005
4406.070695
4472.976491
4451.653559
4358.107776
4426.529564
4397.487865
4421.153419
4417.598023
4443.012581
4437.561431
4418.428871
4432.366624
4423.382841
4410.342199
4416.242198
4426.568211
4408.516553
4419.056429
4418.583598
4417.021640
4423.258754
4421.820837
4442.448185
4349.161876
4443.195009
4490.711159
4406.000753
4495.624338
4448.159263
4404.387522
4440.253356
4464.229758
4419.297868
4517.977611
4365.253731
4458.021602
4403.942775
4423.317311
4428.720137
4417.188390
4412.813361
4432.105126
4409.211966
4409.628210
4432.877372
4426.688918
4433.623436
4409.963875
4430.537277
4392.545979
4432.132929
4417.923056
4448.024657
4405.115586
4393.202700
4441.647298
4420.881380
4451.630410
4402.105738
4470.499496
4421.417604
4466.365703
4431.154976
4425.814154
4455.007408
4362.706217
4394.180840
4421.612813
4423.978732
4428.712803
4427.067438
4429.956576
4441.487789
4409.298411
4464.219908
4427.961443
4421.533347
4423.803231
4420.917478
4455.573618
4396.170830
4408.240673
4432.442197
4423.326059
4459.152840
4394.449718
4442.642603
4451.830348
4408.714720
4431.234515
4472.103021
4408.271061
4357.091000
4489.527068
4441.255070
4402.385885
4477.120989
4460.256027
4417.794790
4424.416129
4419.786955
4420.132958
4423.180431
4416.246447
4447.040472
4389.669671
4440.315111
4420.827067
4407.467348
4388.633827
4440.643685
4440.239605
4429.665232
4406.708918
4440.704553
4414.766785
4424.063509
4393.699339
4424.906997
4414.133391
4450.102817
4449.104946
4454.349833
4469.182346
4450.319202
4418.976357
4408.816809
4479.080986
4354.871552
4415.681064
4419.990794
4421.532440
4436.602702
4428.035885
4411.449256
4441.043548
4432.161102
4426.577290
4420.230290
4431.665136
4402.222652
4429.509744
4398.655911
4421.139513
4415.384446
4416.968568
4389.756418
4468.382299
4431.835325
4494.232287
4429.697806
4393.363337
4449.525976
4450.371369
4453.833561
4415.329366
4477.000910
4442.509607
4472.479074
4417.400363
4403.616009
4419.791755
4427.747813
4410.137489
4419.472092
4440.207277
4391.475621
4429.661957
4434.485401
4430.472295
4440.965910
4410.439588
4424.265806
4419.082214
4426.105825
4457.940713
4366.070078
4439.867495
4393.557209
4361.460661
4436.995641
4441.055441
4431.648944
4542.978510
4457.264144
4448.259487
4425.963345
4442.438516
4430.530465
4451.979645
4432.839605
4417.523096
4418.699498
4424.231008
4434.252576
4413.382961
4439.817111
4432.076041
4415.563477
4398.413938
4424.422348
4448.834219
4425.522453
4455.872769
4425.380376
4436.858614
4459.302498
4435.531702
4378.839268
4441.343440
4479.408165
4448.704165
4409.296740
4372.423494
4449.542512
4475.884011
4461.108234
4435.859935
4462.753996
4367.584780
4449.456038
4389.563176
4449.918460
4421.577960
4430.509875
4423.533772
4424.364956
4399.024054
4442.112606
4427.084819
4430.404242
4398.960793
4430.678325
4420.775118
4398.336272
4412.888412
4421.679138
4396.263949
4451.692537
4402.452740
4485.907376
4421.176981
4309.988015
4386.963218
4502.601239
4372.527192
4487.706415
4429.566442
4461.232140
4445.927328
4326.880632
4446.701526
4413.657908
4391.292756
4432.033359
4429.566070
4415.628473
4434.271974
4430.400456
4420.278892
4416.426174
4417.198074
4411.272698
4438.364988
4400.595035
4441.305869
4451.307654
4425.660031
4429.448271
4414.976554
4443.247070
4414.555575
4397.861058
4567.010900
4402.154156
4633.414502
4458.086602
4453.338234
4450.687367
4465.715888
4460.496233
4487.081263
4466.665979
4403.877915
4437.933468
4429.521202
4425.138580
4440.264182
4413.983694
4407.912793
4419.317234
4409.772994
4433.475819
4415.299102
4430.977388
4424.966136
4409.069564
4393.853646
4424.269441
4444.064879
4415.357627
4412.505705
4464.738989
4429.448213
4378.088489
4479.637947
4332.496829
4393.932024
4466.690296
4465.821310
4451.852623
4438.224650
4493.321745
4453.745188
4466.232168
4449.536057
4433.073030
4422.128441
4431.818874
4425.181180
4420.770348
4446.077677
4418.882679
4427.256129
4439.135827
4406.573243
4426.430573
4417.079592
4444.078781
4445.868066
4404.129439
4426.748479
4425.694039
4414.339404
4446.769925
4480.427385
4486.972263
4481.090248
4471.318982
4434.814527
4464.479555
4434.103938
4457.938376
4441.589527
4343.161939
4351.038214
4347.450611
4427.300313
4433.698907
4412.936454
4420.131605
4442.352344
4402.051247
4448.780317
4401.041078
4439.910254
4428.023649
4420.625697
4423.455171
4401.734920
4406.097018
4413.377552
4457.389442
4433.414525
4404.209867
4436.814253
4452.921092
4445.263127
4477.169295
4471.818700
4481.225773
4436.119328
4425.277768
4403.120975
4475.262564
4489.128140
4422.884932
4435.156028
4425.996324
4423.123358
4444.445672
4410.894652
4424.524933
4406.344064
4430.843405
4407.743627
4411.120275
4426.460287
4421.681612
4434.008723
4405.341197
4438.756796
4446.337009
4402.469150
4432.264372
4442.650631
4426.309256
4406.147381
4442.395797
4505.197020
4484.914703
4415.430845
4458.675251
4428.040020
4445.534765
4436.006484
4488.203173
4391.780148
4417.820346
4432.679444
4430.202183
4416.123394
4441.263705
4416.299350
4436.412710
4440.742965
4427.201205
4450.401492
4412.312085
4430.158607
4413.953002
4446.738640
4457.403764
4392.844380
4433.371789
4454.879177
4417.032102
4453.231503
4429.962507
4461.951401
4428.847337
4471.572902
4458.732219
4434.298829
4483.403483
4449.368200
4453.377548
4397.018167
4412.499706
4378.244090
4427.884006
4431.102831
4414.698748
4429.371039
4422.812781
4424.452706
4420.935406
4432.984455
4400.806758
4443.581332
4413.691875
4435.147198
4403.496533
4423.192472
4410.749262
4400.227132
4419.462395
4463.586340