# vtk DataFile Version 2.0
mfree iwf
ASCII

DATASET UNSTRUCTURED_GRID
POINTS 6231 float
0.000000 0.000300 0.000000
0.000000 0.000310 0.000000
0.000000 0.000320 0.000000
0.000000 0.000330 0.000000
0.000000 0.000340 0.000000
0.000000 0.000350 0.000000
0.000000 0.000360 0.000000
0.000001 0.000370 0.000000
0.000001 0.000380 0.000000
0.000001 0.000390 0.000000
0.000001 0.000400 0.000000
0.000001 0.000410 0.000000
0.000001 0.000420 0.000000
0.000001 0.000430 0.000000
0.000001 0.000440 0.000000
0.000001 0.000450 0.000000
0.000002 0.000460 0.000000
0.000002 0.000470 0.000000
0.000002 0.000480 0.000000
0.000001 0.000492 0.000000
0.000006 0.000501 0.000000
0.001013 0.001081 0.000000
0.001087 0.001115 0.000000
0.001030 0.001088 0.000000
0.001100 0.001119 0.000000
0.001122 0.001124 0.000000
0.001171 0.001127 0.000000
0.001179 0.001125 0.000000
0.001191 0.001119 0.000000
0.001204 0.001116 0.000000
0.001233 0.001116 0.000000
0.000010 0.000300 0.000000
0.000010 0.000310 0.000000
0.000010 0.000320 0.000000
0.000010 0.000330 0.000000
0.000010 0.000340 0.000000
0.000010 0.000350 0.000000
0.000010 0.000360 0.000000
0.000011 0.000370 0.000000
0.000011 0.000380 0.000000
0.000011 0.000390 0.000000
0.000011 0.000400 0.000000
0.000011 0.000410 0.000000
0.000011 0.000420 0.000000
0.000011 0.000430 0.000000
0.000011 0.000440 0.000000
0.000011 0.000450 0.000000
0.000012 0.000460 0.000000
0.000011 0.000472 0.000000
0.000013 0.000478 0.000000
0.000009 0.000492 0.000000
0.000013 0.000498 0.000000
0.001140 0.001120 0.000000
0.001156 0.001120 0.000000
0.001164 0.001121 0.000000
0.001170 0.001118 0.000000
0.001185 0.001112 0.000000
0.001197 0.001110 0.000000
0.001211 0.001106 0.000000
0.001222 0.001107 0.000000
0.001228 0.001104 0.000000
0.001230 0.001112 0.000000
0.000020 0.000300 0.000000
0.000020 0.000310 0.000000
0.000020 0.000320 0.000000
0.000020 0.000330 0.000000
0.000021 0.000340 0.000000
0.000020 0.000350 0.000000
0.000021 0.000360 0.000000
0.000021 0.000370 0.000000
0.000020 0.000380 0.000000
0.000021 0.000390 0.000000
0.000020 0.000400 0.000000
0.000022 0.000410 0.000000
0.000020 0.000420 0.000000
0.000022 0.000430 0.000000
0.000020 0.000440 0.000000
0.000023 0.000451 0.000000
0.000020 0.000460 0.000000
0.000022 0.000470 0.000000
0.000021 0.000482 0.000000
0.000024 0.000494 0.000000
0.000020 0.000497 0.000000
0.001107 0.001110 0.000000
0.001137 0.001115 0.000000
0.001147 0.001117 0.000000
0.001152 0.001114 0.000000
0.001161 0.001107 0.000000
0.001176 0.001110 0.000000
0.001202 0.001103 0.000000
0.001217 0.001102 0.000000
0.001224 0.001093 0.000000
0.001231 0.001090 0.000000
0.000030 0.000300 0.000000
0.000030 0.000310 0.000000
0.000030 0.000320 0.000000
0.000031 0.000330 0.000000
0.000030 0.000340 0.000000
0.000031 0.000350 0.000000
0.000030 0.000360 0.000000
0.000031 0.000370 0.000000
0.000030 0.000380 0.000000
0.000031 0.000390 0.000000
0.000031 0.000400 0.000000
0.000031 0.000410 0.000000
0.000031 0.000420 0.000000
0.000031 0.000430 0.000000
0.000031 0.000440 0.000000
0.000030 0.000450 0.000000
0.000031 0.000459 0.000000
0.000036 0.000473 0.000000
0.000029 0.000478 0.000000
0.000032 0.000488 0.000000
0.000032 0.000497 0.000000
0.000063 0.000500 0.000000
0.001128 0.001110 0.000000
0.001145 0.001101 0.000000
0.001171 0.001100 0.000000
0.001179 0.001093 0.000000
0.001187 0.001105 0.000000
0.001189 0.001097 0.000000
0.001201 0.001094 0.000000
0.001208 0.001092 0.000000
0.001230 0.001082 0.000000
0.000040 0.000300 0.000000
0.000040 0.000310 0.000000
0.000040 0.000320 0.000000
0.000040 0.000330 0.000000
0.000040 0.000340 0.000000
0.000040 0.000350 0.000000
0.000041 0.000359 0.000000
0.000040 0.000370 0.000000
0.000041 0.000380 0.000000
0.000040 0.000390 0.000000
0.000042 0.000399 0.000000
0.000041 0.000410 0.000000
0.000042 0.000420 0.000000
0.000040 0.000430 0.000000
0.000042 0.000439 0.000000
0.000043 0.000450 0.000000
0.000042 0.000460 0.000000
0.000037 0.000469 0.000000
0.000045 0.000477 0.000000
0.000043 0.000496 0.000000
0.000040 0.000498 0.000000
0.000909 0.000941 0.000000
0.001135 0.001102 0.000000
0.001153 0.001100 0.000000
0.001160 0.001094 0.000000
0.001170 0.001102 0.000000
0.001191 0.001088 0.000000
0.001211 0.001082 0.000000
0.001209 0.001072 0.000000
0.001220 0.001085 0.000000
0.001227 0.001073 0.000000
0.000050 0.000300 0.000000
0.000050 0.000310 0.000000
0.000050 0.000320 0.000000
0.000049 0.000330 0.000000
0.000051 0.000339 0.000000
0.000050 0.000350 0.000000
0.000051 0.000361 0.000000
0.000050 0.000371 0.000000
0.000052 0.000380 0.000000
0.000050 0.000390 0.000000
0.000052 0.000400 0.000000
0.000049 0.000410 0.000000
0.000053 0.000419 0.000000
0.000051 0.000430 0.000000
0.000053 0.000440 0.000000
0.000047 0.000451 0.000000
0.000054 0.000458 0.000000
0.000052 0.000469 0.000000
0.000055 0.000483 0.000000
0.000048 0.000488 0.000000
0.000050 0.000498 0.000000
0.001126 0.001117 0.000000
0.001081 0.001106 0.000000
0.001147 0.001093 0.000000
0.001160 0.001079 0.000000
0.001178 0.001084 0.000000
0.001193 0.001081 0.000000
0.001183 0.001076 0.000000
0.001202 0.001080 0.000000
0.001217 0.001073 0.000000
0.001223 0.001062 0.000000
0.000060 0.000300 0.000000
0.000060 0.000310 0.000000
0.000060 0.000321 0.000000
0.000060 0.000330 0.000000
0.000061 0.000340 0.000000
0.000059 0.000350 0.000000
0.000061 0.000359 0.000000
0.000060 0.000368 0.000000
0.000061 0.000380 0.000000
0.000059 0.000391 0.000000
0.000063 0.000399 0.000000
0.000060 0.000409 0.000000
0.000063 0.000419 0.000000
0.000058 0.000430 0.000000
0.000065 0.000440 0.000000
0.000060 0.000449 0.000000
0.000065 0.000460 0.000000
0.000055 0.000471 0.000000
0.000064 0.000475 0.000000
0.000068 0.000485 0.000000
0.000058 0.000496 0.000000
0.001116 0.001117 0.000000
0.001126 0.001101 0.000000
0.001142 0.001084 0.000000
0.001159 0.001086 0.000000
0.001172 0.001074 0.000000
0.001174 0.001065 0.000000
0.001202 0.001063 0.000000
0.001194 0.001072 0.000000
0.001212 0.001062 0.000000
0.001220 0.001054 0.000000
0.000070 0.000300 0.000000
0.000070 0.000310 0.000000
0.000070 0.000319 0.000000
0.000070 0.000329 0.000000
0.000071 0.000340 0.000000
0.000070 0.000350 0.000000
0.000072 0.000359 0.000000
0.000068 0.000373 0.000000
0.000081 0.000376 0.000000
0.000070 0.000390 0.000000
0.000073 0.000400 0.000000
0.000068 0.000411 0.000000
0.000074 0.000421 0.000000
0.000068 0.000429 0.000000
0.000075 0.000438 0.000000
0.000066 0.000452 0.000000
0.000077 0.000458 0.000000
0.000073 0.000470 0.000000
0.000076 0.000486 0.000000
0.000068 0.000495 0.000000
0.000076 0.000496 0.000000
0.000900 0.000920 0.000000
0.001115 0.001104 0.000000
0.001136 0.001092 0.000000
0.001153 0.001063 0.000000
0.001170 0.001084 0.000000
0.001185 0.001065 0.000000
0.001195 0.001063 0.000000
0.001188 0.001054 0.000000
0.001208 0.001053 0.000000
0.001216 0.001044 0.000000
0.000080 0.000300 0.000000
0.000080 0.000310 0.000000
0.000081 0.000321 0.000000
0.000079 0.000331 0.000000
0.000081 0.000340 0.000000
0.000080 0.000351 0.000000
0.000082 0.000362 0.000000
0.000074 0.000370 0.000000
0.000075 0.000383 0.000000
0.000080 0.000391 0.000000
0.000089 0.000397 0.000000
0.000079 0.000410 0.000000
0.000086 0.000417 0.000000
0.000079 0.000431 0.000000
0.000086 0.000445 0.000000
0.000077 0.000448 0.000000
0.000085 0.000464 0.000000
0.000074 0.000470 0.000000
0.000087 0.000473 0.000000
0.000085 0.000482 0.000000
0.000083 0.000495 0.000000
0.001106 0.001115 0.000000
0.001077 0.001111 0.000000
0.001138 0.001072 0.000000
0.001149 0.001079 0.000000
0.001162 0.001069 0.000000
0.001168 0.001057 0.000000
0.001178 0.001056 0.000000
0.001198 0.001051 0.000000
0.001205 0.001044 0.000000
0.001212 0.001035 0.000000
0.000090 0.000300 0.000000
0.000090 0.000310 0.000000
0.000090 0.000319 0.000000
0.000090 0.000329 0.000000
0.000091 0.000341 0.000000
0.000089 0.000349 0.000000
0.000092 0.000361 0.000000
0.000089 0.000369 0.000000
0.000092 0.000379 0.000000
0.000089 0.000387 0.000000
0.000084 0.000404 0.000000
0.000093 0.000410 0.000000
0.000086 0.000425 0.000000
0.000096 0.000426 0.000000
0.000090 0.000435 0.000000
0.000098 0.000455 0.000000
0.000087 0.000453 0.000000
0.000099 0.000472 0.000000
0.000106 0.000480 0.000000
0.000089 0.000495 0.000000
0.000094 0.000495 0.000000
0.000918 0.000957 0.000000
0.001109 0.001098 0.000000
0.001098 0.001105 0.000000
0.001128 0.001091 0.000000
0.001146 0.001059 0.000000
0.001172 0.001048 0.000000
0.001185 0.001046 0.000000
0.001192 0.001040 0.000000
0.001201 0.001035 0.000000
0.001207 0.001026 0.000000
0.000100 0.000300 0.000000
0.000100 0.000310 0.000000
0.000100 0.000321 0.000000
0.000099 0.000331 0.000000
0.000102 0.000339 0.000000
0.000099 0.000350 0.000000
0.000101 0.000360 0.000000
0.000100 0.000371 0.000000
0.000101 0.000381 0.000000
0.000100 0.000391 0.000000
0.000101 0.000400 0.000000
0.000103 0.000406 0.000000
0.000101 0.000418 0.000000
0.000100 0.000436 0.000000
0.000109 0.000442 0.000000
0.000095 0.000445 0.000000
0.000107 0.000460 0.000000
0.000095 0.000465 0.000000
0.000094 0.000481 0.000000
0.000106 0.000491 0.000000
0.000101 0.000494 0.000000
0.001036 0.001091 0.000000
0.001045 0.001096 0.000000
0.001071 0.001108 0.000000
0.001151 0.001070 0.000000
0.001161 0.001055 0.000000
0.001161 0.001044 0.000000
0.001182 0.001037 0.000000
0.001173 0.001035 0.000000
0.001195 0.001029 0.000000
0.001202 0.001018 0.000000
0.000110 0.000300 0.000000
0.000110 0.000310 0.000000
0.000110 0.000319 0.000000
0.000110 0.000329 0.000000
0.000110 0.000341 0.000000
0.000112 0.000351 0.000000
0.000109 0.000359 0.000000
0.000113 0.000370 0.000000
0.000110 0.000378 0.000000
0.000110 0.000389 0.000000
0.000112 0.000400 0.000000
0.000110 0.000414 0.000000
0.000116 0.000422 0.000000
0.000105 0.000427 0.000000
0.000113 0.000432 0.000000
0.000107 0.000450 0.000000
0.000116 0.000462 0.000000
0.000110 0.000470 0.000000
0.000116 0.000480 0.000000
0.000111 0.000493 0.000000
0.000119 0.000492 0.000000
0.000981 0.001048 0.000000
0.000927 0.000977 0.000000
0.001103 0.001093 0.000000
0.001123 0.001081 0.000000
0.001112 0.001078 0.000000
[...]
POINT_DATA 6231
SCALARS density float 1
LOOKUP_TABLE default
4415.113189
4426.906241
4423.377397
4423.914226
4424.376437
4423.321632
4425.088984
4426.659518
4428.839767
4430.199238
4429.734963
4433.549884
4427.980979
4430.111536
4431.953457
4439.849384
4423.265668
4431.824254
4413.857952
4424.060997
4411.102415
4421.440594
4423.275531
4432.098449
4438.053424
4420.989811
4396.385716
4428.278445
4447.715489
4450.895003
4416.790431
4417.116509
4424.491287
4426.207556
4428.253255
4427.801843
4428.764382
4427.356039
4428.263334
4427.843888
4428.688749
4422.489578
4427.393462
4422.800775
4439.223807
4417.713697
4428.348739
4410.909764
4442.625534
4462.501977
4459.938518
4416.288309
4406.762640
4416.695652
4436.210075
4514.474310
4394.002495
4406.466389
4422.315744
4399.710075
4450.591045
4437.956162
4420.042750
4432.168416
4426.118898
4423.861607
4426.099822
4427.122911
4426.015997
4432.174319
4420.558456
4434.572130
4427.901250
4441.077083
4423.427078
4437.099976
4412.132964
4475.217896
4400.386614
4454.591849
4351.101640
4450.815749
4421.532522
4427.011624
4438.216339
4417.199675
4504.862493
4322.524407
4362.652230
4413.520544
4426.510911
4426.381110
4402.264137
4428.496533
4429.292358
4424.264286
4434.966274
4433.651614
4432.687658
4424.351661
4436.443333
4424.836546
4436.966697
4411.639424
4430.670397
4413.667356
4447.501576
4408.523711
4431.491656
4388.867054
4450.639388
4375.749745
4549.595935
4373.555389
4435.355717
4470.856426
4436.546093
4470.880344
4349.363178
4484.944682
4449.351567
4419.218236
4476.503576
4431.108932
4432.693779
4427.880320
4434.088798
4437.024068
4419.697770
4438.807379
4430.997096
4432.342155
4422.100558
4433.300290
4418.344129
4451.268530
4412.222845
4443.350696
4411.931834
4445.756357
4389.861137
4511.302949
4310.320924
4418.729880
4384.992770
4429.178483
4397.907840
4435.629609
4444.615786
4498.475353
4434.347731
4401.102008
4486.850916
4445.625049
4415.727979
4428.952941
4430.885888
4427.868593
4430.534408
4438.391075
4435.450991
4418.677893
4440.978551
4422.237810
4438.171044
4418.197462
4435.988275
4402.647241
4449.977100
4376.526135
4483.082698
4359.861615
4472.478959
4363.852976
4538.126635
4380.589688
4437.941765
4429.924682
4455.016529
4448.943096
4453.435045
4439.293051
4404.621112
4412.657105
4416.426610
4420.920320
4427.074423
4442.090449
4422.802212
4436.984529
4431.879289
4436.334788
4419.144114
4439.118573
4403.851861
4439.279428
4430.199284
4440.490033
4424.483363
4442.717997
4410.168969
4463.281521
4405.654186
4515.074200
4374.717991
4472.148853
4432.731305
4412.762912
4392.494398
4404.827140
4414.942368
4452.786916
4425.101905
4420.044731
4407.209689
4412.983919
4434.281750
4432.496622
4429.962445
4421.671600
4438.137889
4404.010443
4444.377765
4423.608169
4421.315535
4408.740385
4452.543483
4383.489176
4433.697473
4410.145579
4434.341773
4440.966163
4458.688200
4434.674780
4449.979249
4455.723747
4414.257581
4385.356101
4436.026568
4462.324843
4440.981678
4407.164217
4392.433753
4425.509373
4451.326873
4438.332815
4439.294484
4414.148425
4430.497389
4425.702553
4429.219758
4422.771668
4423.450452
4435.159647
4417.751617
4447.278461
4426.802335
4440.624809
4419.743030
4436.662444
4423.411999
4437.305256
4451.874971
4398.266377
4458.235833
4449.869933
4361.908672
4469.412594
4408.278899
4428.690047
4414.532001
4434.028812
4431.333540
4393.566490
4451.629247
4437.360548
4401.650207
4437.924347
4437.211972
4425.662387
4431.076647
4435.001946
4408.264124
4437.369579
4426.743881
4429.101032
4446.179712
4431.935097
4423.584264
4447.867565
4400.613411
4425.643267
4455.000021
4414.939178
4384.263792
4430.323361
4403.107163
4441.267065
4423.386911
4413.768364
4426.740905
4415.780091
4437.141534
4481.610582
4398.121142
4382.201190
4435.675861
4440.086736
4431.789884
4412.276412
4428.284714
4430.284312
4420.382332
4444.420123
4432.436273
4415.440780
4443.376080
4402.481364
4449.417710
4418.099254
4436.605556
4447.779710
4425.344500
4396.826225
4451.335450
4460.718777
4424.606498
4472.189396
4424.081376
4429.494793
4416.452114
4425.442826
4434.570909
4426.979884
4455.754902
4465.068413
4383.436866
4409.287061
4471.538061
4453.457628
4423.945982
4426.909611
4436.320172
4434.411953
4420.327562
4425.586409
4423.360188
4440.059925
4430.836687
4429.688463
4425.528583
4411.245133
4432.601585
4410.141714
4447.835688
4417.833524
4424.416752
4477.904924
4410.943030
4455.153656
4400.552925
4410.060913
4437.626683
4437.813775
4409.603773
4384.538329
4396.759483
4452.630052
4457.041064
4407.327237
4424.285479
4453.708299
4432.374441
4427.594270
4425.964750
4432.627465
4432.478996
4430.707641
4407.779934
4441.788553
4396.167523
4448.603560
4440.102326
4415.094630
4455.853022
4459.445488
4412.274013
4400.283608
4423.082065
4379.549408
4434.613937
4438.381402
4390.174933
4440.728013
4414.673130
4428.207152
4452.919604
4440.906038
4416.851858
4347.168583
4459.991425
4387.801149
4418.338628
4438.222288
4431.848146
4429.401791
4436.499211
4413.532442
4442.453953
4429.987753
4426.408709
4451.225848
4410.284504
4412.409890
4398.453775
4432.507611
4425.949305
4391.402390
4465.198502
4409.924554
4465.993757
4487.206230
4417.976029
4439.401087
4435.483376
4418.141594
4423.196887
4422.587467
4436.342670
4461.182385
4461.694954
4464.979867
4497.516764
4454.740912
4432.428686
4434.620359
4429.376756
4425.094550
4439.399831
4416.975469
4428.812011
4409.383024
4416.160412
4412.467259
4449.824383
4421.817157
4457.369929
4410.257953
4438.903018
4356.666001
4415.694789
4487.835650
4571.341346
4390.325592
4381.560031
4426.556807
4419.685570
4448.859702
4454.849155
4406.659345
4438.407870
4427.362289
4403.562395
4404.206199
4448.876271
4426.729847
4434.086411
4435.582895
4416.411823
4435.449532
4404.574131
4436.237707
4433.479974
4437.542030
4404.273054
4453.040589
4411.081234
4440.328132
4416.817708
4448.391042
4443.788727
4524.008219
4342.962115
4323.222692
4464.003750
4392.146104
4414.893634
4431.058728
4435.453260
4480.168508
4446.353012
4442.644769
4435.345869
4398.937765
4423.332337
4412.416203
4432.977522
4425.750085
4433.140601
4420.913137
4439.915239
4431.122074
4421.335061
4383.298428
4424.903460
4446.350949
4446.601644
4434.770153
4456.885934
4403.991360
4434.661451
4413.036056
4410.902948
4486.914059
4475.133649
4420.609932
4404.620954
4428.072176
4450.473141
4403.472323
4369.995329
4461.910893
4464.306503
4419.741444
4405.524414
4432.355724
4429.477604
4437.307781
4417.161992
4441.232150
4434.341990
4429.271421
4411.071285
4424.729066
4446.352393
4440.275119
4414.467664
4436.198033
4422.891241
4403.573397
4445.802854
4410.846539
4434.778438
4399.814362
4469.711038
4375.592988
4391.646604
4418.424315
4421.378098
4439.127265
4439.255755
4398.530154
4468.379326
4442.669633
4397.796542
4467.950617
4429.108013
4439.679109
4430.278732
4425.600129
4438.171244
4415.926378
4437.211793
4439.180380
4416.768213
4391.454576
4435.985337
4431.721045
4425.792742
4454.003418
4448.217407
4419.632353
4422.945127
4442.387945
4390.570563
4432.359367
4425.637875
4435.867263
4385.537366
4423.325645
4433.950379
4436.181049
4443.903057
4415.234772
4478.000656
4480.513350
4413.243299
4420.566420
4419.882178
4427.251916
4427.614708
4426.246412
4419.815244
4439.614406
4405.558800
4448.462231
4444.263649
4428.539071
4412.690708
4417.728077
4410.279927
4440.493824
4422.606527
4414.270248
4449.212516
4378.233135
4471.026883
4425.802520
4554.045645
4376.615106
4464.585244
4419.186836
4435.994831
4447.736991
4381.117952
4463.840076
4388.887395
4411.642818
4412.023783
4421.216705
4431.157327
4433.550983
4428.059598
4433.874468
4418.499975
4452.285058
4403.252573
4407.032823
4390.933989
4443.269159
4452.513608
4440.216182
4422.252735
4435.783345
4438.637447
4437.061879
4469.415000
4480.262826
4387.209762
4385.756879
4434.945939
4415.919356
4430.419310
4461.493139
4437.756294
4406.398902
4432.909980
4451.880098
4457.808481
4424.462956
4410.271843
4431.778475
4428.643417
4422.690428
4438.435287
4413.011248
4449.219711
4410.138126
4429.840654
4442.313835
4410.030013
4422.932328
4415.910135
4456.684879
4429.973044
4389.150761
4464.968285
4422.911905
4408.166424
4392.226187
4461.832595
4415.312643
4449.181875
4419.261612
4428.762565
4429.305835
4389.919843
4372.747162
4451.154290
4355.313445
4426.641473
4444.890299
4426.164887
4437.160233
4430.951232
4434.623059
4428.637264
4400.902353
4441.601612
4412.589497
4407.566783
4449.264345
4405.892279
4432.018027
4456.844399
4420.320898
4392.250914
4452.597267
4416.790414
4411.162805
4447.468207
4449.693522
4428.400349
4424.493948
4419.752534
4458.474329
4411.719983
4434.964245
4477.653853
4342.527985
4486.308331
4386.884519
4418.895005
4431.025921
4428.807453
4426.695294
4413.554150
4442.264974
4441.218643
4426.813337
4420.567768
4404.822587
4440.603351
4412.204298
4440.182362
4398.516082
4429.712488
4426.554076
4429.099157
4411.830160
4451.298324
4402.602216
4431.410570
4423.052180
4412.686711
4442.534569
4418.294536
4443.990167
4466.350820
4421.793061
4398.178131
4447.677604
4439.469778
4444.709698
4428.225779
4422.980445
4439.075313
4444.873317
4405.312410
4426.548084
4405.977076
4448.078580
4435.149293
4419.124713
4439.741902
4427.453131
4440.711796
4449.319911
4389.446946
4454.405331
4404.842600
4452.389429
4437.171522
4470.204942
4415.367939
4421.503928
4455.975197
4422.700039
4432.435452
4453.588556
4428.253421
4462.868857
4426.145043
4420.392386
4434.955031
4434.449219
4442.982197
4409.292532
4436.582816
4432.312282
4435.053712
4440.778539
4414.837888
4415.529739
4435.088213
4444.104982
4449.278508
4437.238807
4423.473360
4439.049126
4440.058480
4396.649790
4452.431419
4363.735929
4427.123526
4430.547210
4414.467641
4454.813745
4433.606886
4436.122473
4391.780126
4446.559085
4422.648381
4446.145475
4409.586414
4421.039679
4422.932636
4439.643058
4415.447778
4436.205903
4421.655803
4422.087437
4416.083113
4446.593273
4429.957209
4443.566096
4395.103923
4464.443312
4394.056825
4405.975128
4398.410792
4445.503472
4429.943156
4462.280010
4420.765048
4434.394755
4427.443451
4433.788096
4422.195127
4390.809764
4419.753870
4441.938759
4420.018349
4409.166681
4472.420239
4410.103208
4443.701768
4422.592701
4431.666173
4437.276840
4435.613249
4413.219548
4457.260219
4417.435280
4429.437899
4401.175336
4446.553521
4407.239097
4411.584392
4423.020290
4443.956317
4427.024837
4458.552548
4402.201975
4464.216971
4418.606912
4438.776349
4414.056667
4423.050114
4430.197561
4428.037908
4413.949394
4422.451979
4416.974254
4449.063987
4414.683337
4402.685757
4433.668100
4435.762154
4430.108778
4410.165743
4436.772179
4427.962174
4423.523038
4419.342682
4441.596058
4417.472899
4422.962559
4432.124185
4448.029209
4431.577157
4439.459477
4395.417089
4447.691023
4396.939482
4455.196504
4425.140073
4431.643262
4409.332250
4431.390453
4415.547013
4431.965337
4474.876673
4398.209025
4413.695889
4443.340367
4411.093537
4436.428894
4404.899031
4427.552707
4425.970104
4438.716560
4439.957096
4426.243471
4424.298956
4436.502075
4420.074941
4435.793271
4433.156824
4409.911903
4440.392880
4422.871387
4420.794011
4419.812000
4432.501717
4411.982179
4373.393366
4392.171881
4463.624292
4430.216910
4412.624568
4418.677150
4410.374446
4452.084322
4433.788882
4405.194412
4465.898439
4422.033726
4422.506185
4447.537308
4432.610220
4425.050878
4431.636449
4403.615742
4443.475455
4424.513303
4431.135760
4436.306177
4407.297687
4438.718851
4455.647293
4410.509764
4438.564929
4448.782020
4424.660435
4405.187162
4418.059746
4486.605260
4455.289192
4433.054572
4438.001420
4435.838370
4440.066811
4417.758508
4423.751988
4417.408442
4436.935482
4419.503565
4434.555913
4414.175387
4434.707153
4431.270036
4431.086655
4435.635831
4441.131443
4435.774942
4427.106852
4419.980353
4443.944275
4443.374987
4417.398753
4413.614476
4435.790556
4447.986741
4403.918545
4436.495063
4458.330245
4387.315748
4448.699594
4397.281016
4395.579178
4428.425074
4435.039314
4426.970930
4390.182172
4468.434117
4394.200763
4429.462958
4415.170821
4467.592950
4351.931143
4414.018055
4431.170739
4433.543740
4419.843491
4427.782898
4409.544969
4455.508231
4438.675824
4403.051921
4408.980055
4447.646485
4444.089782
4415.718506
4410.557932
4459.741670
4441.686173
4434.307131
4393.048249
4390.993036
4463.050456
4454.196511
4440.859483
4405.886092
4402.608567
4426.464096
4442.152491
4443.548014
4375.784278
4465.220210
4431.669021
4464.157967
4417.134378
4432.838892
4438.163962
4428.026187
4437.626172
4442.713142
4410.233681
4405.625566
4455.488629
4433.551322
4412.321841
4407.320242
4451.796614
4434.255796
4416.544264
4399.747855
4432.914467
4467.483412
4448.983263
4330.746131
4468.585152
4462.385370
4435.553055
4475.932770
4424.575058
4442.093603
4460.226635
4437.457112
4411.047510
4404.170324
4404.139072
4439.368063
4431.813712
4433.099114
4417.585896
4417.537560
4421.356110
4449.033533
4430.583707
4413.470690
4402.224416
4464.001750
4415.635052
4425.440596
4415.481954
4446.802879
4405.180391
4452.118281
4372.631061
4450.488635
4317.235171
4497.638291
4437.221360
4418.019558
4426.901355
4485.371117
4423.012513
4444.445717
4397.878333
4477.559247
4361.914373
4435.145393
4450.385808
4428.711449
4432.626949
4430.376230
4443.764072
4418.221149
4420.563866
4425.799511
4448.944321
4437.083420
4394.949515
4422.942407
4441.593432
4402.633928
4462.858084
4379.801310
4466.325713
4386.274715
4479.369827
4470.098084
4505.200132
4414.450139
4414.933795
4380.895106
4437.824811
4403.011768
4433.278300
4452.757042
4447.502470
4448.247843
4353.919239
4454.687463
4424.948163
4437.241603
4416.213371
4426.129571
4412.098069
4428.073026
4430.866359
4398.313466
4423.822663
4456.269071
4430.639125
4443.655377
4415.619556
4415.747897
4461.977633
4427.368790
4438.513950
4431.445373
4432.999465
4509.315794
4446.605027
4433.100953
4440.020098
4419.670660
4389.096097
4455.333720
4408.858832
4436.950442
4443.535098
4440.326028
4411.322451
4426.854763
4429.583223
4431.081560
4438.901396
4435.652426
4448.730671
4442.293167
4446.810116
4395.000031
4404.811683
4449.152802
4456.744597
4408.699797
4393.475369
4409.178150
4404.967562
4450.958667
4398.900560
4391.861155
4427.278749
4392.410852
4416.601078
4422.483051
4435.596112
4399.052204
4450.088558
4378.331911
4396.729992
4480.367457
4472.526167
4410.002172
4428.414593
4430.127120
4418.843362
4423.070808
4425.326619
4415.756002
4393.583108
4435.422125
4430.558159
4424.337833
4459.456411
4421.838858
4436.664359
4444.982450
4436.419369
4467.465981
4382.173532
4445.216961
4440.374199
4447.565033
4430.366683
4433.137403
4423.115945
4450.021842
4444.364697
4474.451039
4464.914273
4440.014271
4380.768332
4415.114631
4401.071325
4430.682450
4426.186941
4440.910876
4432.862520
4402.611937
4427.501741
4448.715904
4453.310415
4430.031510
4414.376178
4449.656444
4404.750719
4411.753950
4422.664569
4426.570026
4432.990626
4445.305813
4420.622583
4447.103205
4436.284343
4429.682077
4425.946564
4433.185448
4419.299750
4425.812992
4450.074887
4408.840850
4492.480523
4394.999830
4449.897056
4428.888415
4428.629385
4432.039810
4412.283341
4444.869270
4431.470756
4416.390645
4420.256114
4429.635281
4437.413064
4442.759449
4409.067705
4464.860136
4423.555926
4429.358993
4402.713840
4439.762042
4403.971011
4403.572582
4414.350631
4453.611824
4435.498564
4419.494111
4465.293163
4433.859304
4429.912093
4435.997966
4435.744830
4445.455840
4346.195828
4389.172795
4402.689593
4416.756306
4432.354570
4432.909018
4406.818724
4443.746707
4416.786454
4405.389052
4432.659232
4422.836358
4393.618742
4407.593164
4434.546893
4413.197028
4403.360717
4433.052185
4408.522002
4461.119283
4389.595409
4430.993287
4435.362257
4423.347930
4422.475463
4427.229623
4399.987555
4446.108207
4467.752428
4445.296419
4354.980053
4454.444203
4474.338736
4413.678307
4427.156304
4428.551318
4427.074216
4455.918257
4406.028982
4441.546699
4451.070674
4441.796538
4452.719232
4406.533976
4417.899282
4440.411254
4463.702755
4432.938227
4428.084282
4433.598725
4404.186445
4434.219601
4367.070129
4425.864439
4434.114739
4432.669272
4426.569461
4446.014946
4414.026363
4409.116547
4409.788686
4376.303550
4449.589325
4395.661271
4433.178585
4434.814888
4430.987248
4413.942423
4440.926904
4414.064946
4411.511364
4409.412635
4449.544466
4451.409469
4403.979935
4395.595150
4423.869382
4424.212212
4407.158944
4401.189252
4453.437283
4387.507954
4458.294300
4458.582593
4445.317766
4435.921927
4429.329279
4434.134946
4427.907785
4462.811264
4418.765813
4461.835925
4458.915479
4468.374001
4434.847863
4400.585419
4420.924782
4441.131903
4430.888722
4411.769995
4435.356692
4446.106790
4418.534320
4445.807073
4417.049028
4431.962472
4453.589948
4440.978954
4409.841552
4408.313519
4454.249938
4414.243635
4441.309548
4426.724025
4383.138817
4474.080806
4448.792463
4435.394846
4402.582309
4425.696955
4397.001417
4456.174809
4401.087471
4418.296274
4332.152251
4408.137978
4401.484811
4437.077872
4420.618478
4432.637531
4438.649862
4409.431324
4435.445237
4415.486362
4429.587410
4422.702469
4423.516612
4429.890197
4429.574905
4421.746582
4449.289184
4465.933287
4416.356977
4393.150999
4473.881448
4389.606252
4437.889088
4414.816308
4400.665390
4441.346830
4404.759860
4426.865232
4461.175231
4440.844701
4396.488986
4411.915970
4467.446986
4450.217994
4432.413338
4424.255731
4426.385817
4439.266435
4430.708833
4419.169058
4453.018837
4434.127985
4434.075891
4434.452050
4439.453064
4416.614531
4430.034151
4439.063206
4450.854153
4403.034523
4433.704431
4465.953511
4428.092481
4333.010522
4407.002998
4427.144156
4422.864369
4432.981553
4441.551631
4474.837517
4401.976561
4445.647667
4458.814273
4393.114933
4361.463866
4421.304912
4438.580156
4433.222775
4402.535425
4440.704681
4427.387472
4416.420099
4422.536162
4423.017791
4418.645062
4420.554157
4432.873259
4444.325324
4390.378529
4448.720353
4386.835348
4421.054611
4453.636492
4384.720682
4528.532565
4391.856704
4430.287764
4410.789698
4439.471256
4442.072323
4454.011644
4447.194587
4412.494540
4496.155838
4449.600661
4419.907516
4432.278931
4428.139363
4422.942344
4432.349734
4430.327734
4431.312188
4445.104028
4426.437647
4432.556470
4418.496569
4395.647885
4429.879272
4404.512829
4455.339820
4441.972523
4452.370036
4441.543658
4418.483913
4421.128494
4429.187102
4484.067283
4437.087728
4462.035039
4425.146604
4453.216935
4469.468397
4451.637458
4433.971757
4459.773331
4435.830866
4487.155077
4435.164418
4425.515905
4431.326601
4434.884350
4406.006692
4437.838696
4401.920927
4449.530183
4414.796182
4424.129093
4447.490639
4406.818497
4430.224884
4435.853206
4397.642922
4449.355269
4399.204566
4421.264898
4420.012057
4444.340390
4436.341901
4432.704150
4462.439802
4478.519475
4453.508616
4431.656335
4380.972762
4393.803296
4367.078341
4343.835457
4391.762526
4428.877152
4432.262683
4424.090444
4415.561621
4442.323380
4446.160585
4424.518081
4431.953681
4435.660747
4451.199467
4423.570240
4459.359804
4433.963926
4425.280187
4459.310789
4394.515777
4392.918823
4452.725788
4415.956641
4428.229490
4444.366553
4418.379565
4429.367621
4427.394300
4471.364342
4426.253311
4351.704766
4451.833137
4491.780883
4395.695666
4447.895109
4430.613003
4420.881020
4431.467720
4426.488279
4426.881594
4405.756187
4414.170055
4425.099922
4474.161076
4419.923393
4429.345857
4433.526843
4424.214183
4432.603222
4418.065669
4441.087822
4438.968064
4447.925136
4382.452813
4412.806327
4416.515957
4432.400984
4379.872360
4446.351540
4371.277162
4392.808998
4453.961969
4465.251171
4475.847245
4389.974490
4423.828696
4430.174312
4420.894249
4423.926491
4428.940138
4458.222611
4448.663313
4413.314603
4414.752984
4398.290560
4430.183492
4397.270221
4444.225840
4432.628304
4431.917865
4454.237529
4411.099985
4430.983700
4462.533037
4476.262188
4380.514534
4423.371181
4423.318026
4432.483037
4422.159382
4383.649161
4439.075346
4420.141272
4451.967874
4468.594338
4415.684273
4403.017981
4418.460187
4441.617796
4424.853352
4418.169405
4432.084046
4411.724464
4423.585315
4445.858834
4408.370327
4426.496522
4430.611428
4434.444914
4406.239607
4440.133462
4420.708887
4403.301750
4442.426754
4457.530490