# vtk DataFile Version 2.0
mfree iwf
ASCII

DATASET UNSTRUCTURED_GRID
POINTS 6231 float
0.000000 0.000300 0.000000
0.000000 0.000310 0.000000
0.000000 0.000320 0.000000
0.000000 0.000330 0.000000
0.000000 0.000340 0.000000
0.000000 0.000350 0.000000
0.000001 0.000360 0.000000
0.000001 0.000370 0.000000
0.000001 0.000380 0.000000
0.000001 0.000390 0.000000
0.000001 0.000400 0.000000
0.000001 0.000410 0.000000
0.000001 0.000420 0.000000
0.000001 0.000430 0.000000
0.000001 0.000440 0.000000
0.000002 0.000450 0.000000
0.000002 0.000460 0.000000
0.000002 0.000471 0.000000
0.000002 0.000480 0.000000
0.000002 0.000492 0.000000
0.000006 0.000501 0.000000
0.000471 0.000778 0.000000
0.000520 0.000842 0.000000
0.000482 0.000793 0.000000
0.000530 0.000853 0.000000
0.000547 0.000867 0.000000
0.000590 0.000891 0.000000
0.000597 0.000893 0.000000
0.000611 0.000894 0.000000
0.000624 0.000897 0.000000
0.000656 0.000908 0.000000
0.000010 0.000300 0.000000
0.000010 0.000310 0.000000
0.000010 0.000320 0.000000
0.000010 0.000330 0.000000
0.000010 0.000340 0.000000
0.000010 0.000350 0.000000
0.000011 0.000360 0.000000
0.000011 0.000370 0.000000
0.000011 0.000380 0.000000
0.000011 0.000390 0.000000
0.000011 0.000400 0.000000
0.000011 0.000410 0.000000
0.000011 0.000420 0.000000
0.000011 0.000430 0.000000
0.000011 0.000440 0.000000
0.000012 0.000451 0.000000
0.000012 0.000460 0.000000
0.000012 0.000472 0.000000
0.000013 0.000478 0.000000
0.000010 0.000492 0.000000
0.000013 0.000498 0.000000
0.000566 0.000872 0.000000
0.000578 0.000878 0.000000
0.000586 0.000882 0.000000
0.000593 0.000883 0.000000
0.000610 0.000885 0.000000
0.000621 0.000888 0.000000
0.000635 0.000891 0.000000
0.000645 0.000896 0.000000
0.000651 0.000897 0.000000
0.000653 0.000904 0.000000
0.000020 0.000300 0.000000
0.000020 0.000310 0.000000
0.000020 0.000320 0.000000
0.000020 0.000330 0.000000
0.000020 0.000340 0.000000
0.000020 0.000351 0.000000
0.000020 0.000360 0.000000
0.000021 0.000370 0.000000
0.000020 0.000380 0.000000
0.000022 0.000390 0.000000
0.000020 0.000400 0.000000
0.000022 0.000410 0.000000
0.000020 0.000420 0.000000
0.000022 0.000431 0.000000
0.000020 0.000440 0.000000
0.000023 0.000451 0.000000
0.000021 0.000460 0.000000
0.000022 0.000470 0.000000
0.000021 0.000481 0.000000
0.000024 0.000494 0.000000
0.000020 0.000497 0.000000
0.000541 0.000848 0.000000
0.000563 0.000866 0.000000
0.000572 0.000872 0.000000
0.000579 0.000872 0.000000
0.000591 0.000870 0.000000
0.000603 0.000879 0.000000
0.000629 0.000885 0.000000
0.000642 0.000890 0.000000
0.000654 0.000885 0.000000
0.000661 0.000887 0.000000
0.000030 0.000300 0.000000
0.000030 0.000310 0.000000
0.000030 0.000320 0.000000
0.000030 0.000330 0.000000
0.000030 0.000340 0.000000
0.000031 0.000350 0.000000
0.000030 0.000360 0.000000
0.000030 0.000370 0.000000
0.000031 0.000380 0.000000
0.000031 0.000390 0.000000
0.000031 0.000400 0.000000
0.000031 0.000411 0.000000
0.000031 0.000420 0.000000
0.000032 0.000430 0.000000
0.000031 0.000440 0.000000
0.000030 0.000450 0.000000
0.000031 0.000459 0.000000
0.000036 0.000473 0.000000
0.000030 0.000478 0.000000
0.000033 0.000488 0.000000
0.000032 0.000497 0.000000
0.000063 0.000500 0.000000
0.000560 0.000859 0.000000
0.000578 0.000858 0.000000
0.000603 0.000871 0.000000
0.000613 0.000868 0.000000
0.000615 0.000878 0.000000
0.000623 0.000874 0.000000
0.000633 0.000876 0.000000
0.000641 0.000878 0.000000
0.000663 0.000878 0.000000
0.000040 0.000300 0.000000
0.000040 0.000310 0.000000
0.000040 0.000320 0.000000
0.000040 0.000329 0.000000
0.000040 0.000340 0.000000
0.000040 0.000351 0.000000
0.000040 0.000360 0.000000
0.000041 0.000370 0.000000
0.000041 0.000380 0.000000
0.000040 0.000390 0.000000
0.000042 0.000399 0.000000
0.000041 0.000410 0.000000
0.000042 0.000420 0.000000
0.000040 0.000431 0.000000
0.000042 0.000439 0.000000
0.000043 0.000450 0.000000
0.000043 0.000460 0.000000
0.000037 0.000469 0.000000
0.000045 0.000478 0.000000
0.000043 0.000496 0.000000
0.000040 0.000498 0.000000
0.000446 0.000610 0.000000
0.000571 0.000854 0.000000
0.000587 0.000860 0.000000
0.000596 0.000858 0.000000
0.000600 0.000865 0.000000
0.000622 0.000863 0.000000
0.000645 0.000870 0.000000
0.000649 0.000861 0.000000
0.000654 0.000876 0.000000
0.000665 0.000870 0.000000
0.000050 0.000300 0.000000
0.000050 0.000310 0.000000
0.000050 0.000319 0.000000
0.000050 0.000331 0.000000
0.000050 0.000340 0.000000
0.000051 0.000350 0.000000
0.000051 0.000360 0.000000
0.000049 0.000370 0.000000
0.000052 0.000379 0.000000
0.000050 0.000390 0.000000
0.000053 0.000400 0.000000
0.000048 0.000411 0.000000
0.000053 0.000420 0.000000
0.000051 0.000430 0.000000
0.000054 0.000440 0.000000
0.000047 0.000451 0.000000
0.000055 0.000458 0.000000
0.000053 0.000470 0.000000
0.000056 0.000483 0.000000
0.000049 0.000488 0.000000
0.000050 0.000498 0.000000
0.000553 0.000862 0.000000
0.000519 0.000833 0.000000
0.000585 0.000851 0.000000
0.000603 0.000851 0.000000
0.000615 0.000857 0.000000
0.000631 0.000865 0.000000
0.000627 0.000853 0.000000
0.000638 0.000862 0.000000
0.000656 0.000864 0.000000
0.000666 0.000858 0.000000
0.000060 0.000300 0.000000
0.000060 0.000310 0.000000
0.000060 0.000321 0.000000
0.000060 0.000330 0.000000
0.000062 0.000340 0.000000
0.000059 0.000350 0.000000
0.000062 0.000360 0.000000
0.000060 0.000370 0.000000
0.000063 0.000381 0.000000
0.000058 0.000390 0.000000
0.000063 0.000400 0.000000
0.000060 0.000409 0.000000
0.000064 0.000419 0.000000
0.000057 0.000430 0.000000
0.000066 0.000440 0.000000
0.000060 0.000449 0.000000
0.000066 0.000460 0.000000
0.000055 0.000472 0.000000
0.000064 0.000475 0.000000
0.000068 0.000486 0.000000
0.000058 0.000496 0.000000
0.000545 0.000858 0.000000
0.000562 0.000850 0.000000
0.000583 0.000841 0.000000
0.000594 0.000847 0.000000
0.000610 0.000843 0.000000
0.000621 0.000843 0.000000
0.000648 0.000849 0.000000
0.000638 0.000851 0.000000
0.000657 0.000852 0.000000
0.000667 0.000849 0.000000
0.000070 0.000300 0.000000
0.000070 0.000310 0.000000
0.000070 0.000319 0.000000
0.000070 0.000330 0.000000
0.000071 0.000340 0.000000
0.000068 0.000351 0.000000
0.000075 0.000356 0.000000
0.000067 0.000371 0.000000
0.000074 0.000376 0.000000
0.000069 0.000390 0.000000
0.000074 0.000400 0.000000
0.000068 0.000411 0.000000
0.000075 0.000421 0.000000
0.000068 0.000430 0.000000
0.000075 0.000439 0.000000
0.000066 0.000452 0.000000
0.000077 0.000459 0.000000
0.000073 0.000470 0.000000
0.000076 0.000486 0.000000
0.000068 0.000496 0.000000
0.000076 0.000496 0.000000
0.000446 0.000596 0.000000
0.000551 0.000846 0.000000
0.000574 0.000844 0.000000
0.000601 0.000834 0.000000
0.000613 0.000850 0.000000
0.000629 0.000840 0.000000
0.000637 0.000847 0.000000
0.000640 0.000837 0.000000
0.000657 0.000842 0.000000
0.000668 0.000839 0.000000
0.000080 0.000300 0.000000
0.000080 0.000310 0.000000
0.000080 0.000321 0.000000
0.000081 0.000330 0.000000
0.000080 0.000341 0.000000
0.000081 0.000349 0.000000
0.000076 0.000364 0.000000
0.000083 0.000369 0.000000
0.000081 0.000384 0.000000
0.000078 0.000390 0.000000
0.000087 0.000396 0.000000
0.000079 0.000409 0.000000
0.000084 0.000417 0.000000
0.000079 0.000430 0.000000
0.000087 0.000445 0.000000
0.000077 0.000447 0.000000
0.000086 0.000463 0.000000
0.000074 0.000470 0.000000
0.000087 0.000473 0.000000
0.000085 0.000482 0.000000
0.000084 0.000495 0.000000
0.000536 0.000852 0.000000
0.000512 0.000835 0.000000
0.000587 0.000832 0.000000
0.000595 0.000839 0.000000
0.000611 0.000832 0.000000
0.000621 0.000831 0.000000
0.000630 0.000830 0.000000
0.000648 0.000834 0.000000
0.000658 0.000833 0.000000
0.000668 0.000829 0.000000
0.000090 0.000300 0.000000
0.000090 0.000310 0.000000
0.000090 0.000320 0.000000
0.000090 0.000329 0.000000
0.000090 0.000340 0.000000
0.000092 0.000351 0.000000
0.000089 0.000359 0.000000
0.000092 0.000369 0.000000
0.000088 0.000379 0.000000
0.000092 0.000388 0.000000
0.000086 0.000406 0.000000
0.000094 0.000408 0.000000
0.000088 0.000425 0.000000
0.000096 0.000426 0.000000
0.000088 0.000436 0.000000
0.000097 0.000456 0.000000
0.000087 0.000453 0.000000
0.000097 0.000471 0.000000
0.000106 0.000480 0.000000
0.000089 0.000495 0.000000
0.000094 0.000495 0.000000
0.000446 0.000622 0.000000
0.000548 0.000840 0.000000
0.000535 0.000839 0.000000
0.000566 0.000841 0.000000
0.000603 0.000824 0.000000
0.000623 0.000823 0.000000
0.000639 0.000827 0.000000
0.000647 0.000824 0.000000
0.000658 0.000823 0.000000
0.000668 0.000819 0.000000
0.000100 0.000300 0.000000
0.000100 0.000310 0.000000
0.000100 0.000320 0.000000
0.000101 0.000331 0.000000
0.000100 0.000340 0.000000
0.000099 0.000349 0.000000
0.000101 0.000360 0.000000
0.000100 0.000372 0.000000
0.000102 0.000381 0.000000
0.000100 0.000393 0.000000
0.000100 0.000399 0.000000
0.000103 0.000409 0.000000
0.000100 0.000418 0.000000
0.000100 0.000435 0.000000
0.000110 0.000444 0.000000
0.000097 0.000445 0.000000
0.000107 0.000460 0.000000
0.000098 0.000467 0.000000
0.000095 0.000481 0.000000
0.000106 0.000491 0.000000
0.000101 0.000494 0.000000
0.000485 0.000798 0.000000
0.000490 0.000805 0.000000
0.000509 0.000829 0.000000
0.000595 0.000824 0.000000
0.000612 0.000821 0.000000
0.000621 0.000813 0.000000
0.000640 0.000817 0.000000
0.000633 0.000810 0.000000
0.000656 0.000815 0.000000
0.000667 0.000810 0.000000
0.000110 0.000300 0.000000
0.000110 0.000310 0.000000
0.000110 0.000320 0.000000
0.000110 0.000329 0.000000
0.000110 0.000339 0.000000
0.000110 0.000351 0.000000
0.000111 0.000360 0.000000
0.000110 0.000369 0.000000
0.000111 0.000378 0.000000
0.000110 0.000388 0.000000
0.000112 0.000400 0.000000
0.000111 0.000412 0.000000
0.000116 0.000423 0.000000
0.000107 0.000426 0.000000
0.000112 0.000434 0.000000
0.000106 0.000449 0.000000
0.000115 0.000461 0.000000
0.000111 0.000471 0.000000
0.000116 0.000480 0.000000
0.000111 0.000493 0.000000
0.000119 0.000492 0.000000
0.000457 0.000732 0.000000
0.000446 0.000643 0.000000
0.000544 0.000833 0.000000
0.000570 0.000831 0.000000
0.000561 0.000824 0.000000
[...]
POINT_DATA 6231
SCALARS density float 1
LOOKUP_TABLE default
4406.735519
4424.832464
4421.348385
4422.727611
4426.138690
4425.517811
4424.480735
4426.587589
4430.092564
4428.826571
4426.290994
4431.172741
4428.549577
4429.764781
4430.766356
4440.246972
4423.332733
4431.824259
4412.574115
4423.844538
4411.184157
4429.791730
4427.297401
4435.932777
4440.815351
4417.941278
4403.846371
4436.138873
4446.805010
4449.652973
4424.686866
4411.922837
4425.291171
4424.144495
4423.963818
4424.571624
4426.309216
4425.214270
4421.432085
4425.335439
4429.367768
4424.454762
4430.993340
4425.229201
4437.383781
4416.379413
4427.565724
4410.032677
4444.195342
4461.111149
4460.407064
4416.277679
4404.161052
4396.713342
4427.535944
4498.196618
4393.690349
4406.990876
4424.890946
4420.270569
4460.839272
4458.957905
4418.451977
4427.502112
4421.726895
4429.580773
4423.317188
4422.599632
4430.628148
4440.237250
4422.475008
4429.885296
4428.228760
4434.240226
4417.775379
4439.495268
4414.678460
4476.502127
4399.402114
4453.781608
4351.700032
4449.492327
4420.678043
4416.563133
4432.107334
4407.915831
4539.050452
4344.447103
4371.183545
4433.156032
4414.511858
4403.823045
4401.622768
4421.536529
4425.690654
4426.296559
4426.700141
4431.587141
4438.181394
4420.175722
4420.097554
4420.524712
4438.965247
4411.517568
4437.817113
4417.833588
4446.797712
4403.020240
4431.375403
4389.944068
4459.357647
4367.772393
4557.368447
4370.550295
4431.774300
4459.796686
4427.973621
4483.258925
4356.593112
4489.621195
4449.649682
4389.890189
4502.830611
4455.571051
4428.002377
4432.080288
4433.459583
4434.241539
4424.254745
4425.412580
4429.610936
4444.915257
4424.670009
4435.370717
4410.200264
4450.995227
4402.516307
4444.424972
4413.585435
4450.644039
4386.375845
4508.888378
4307.789638
4419.764395
4383.917883
4490.243474
4422.510039
4381.681995
4457.045185
4470.481220
4451.694237
4377.492346
4481.817792
4420.935691
4428.115369
4433.765271
4428.871432
4417.606942
4437.509265
4430.316406
4440.341577
4409.827426
4433.487196
4403.990224
4442.429867
4421.151555
4438.771802
4404.259367
4459.377784
4362.581157
4480.672312
4358.394302
4477.230844
4361.712759
4536.179501
4383.037800
4441.367408
4425.682969
4458.981765
4375.454343
4416.229633
4438.796078
4391.268036
4396.181490
4404.642847
4413.672617
4425.260405
4439.089735
4432.490785
4445.057877
4409.725779
4452.450251
4402.241075
4452.239546
4416.568608
4448.662157
4408.618419
4443.406845
4423.436597
4436.264328
4421.737037
4470.964618
4401.663963
4519.404171
4372.828856
4480.932805
4431.890806
4418.859264
4388.599805
4417.305883
4456.457065
4457.613919
4415.821619
4404.723680
4438.548702
4432.147951
4426.128205
4425.439163
4433.559157
4414.546594
4428.121278
4431.040330
4435.050804
4424.886110
4452.275250
4399.238926
4440.770350
4397.666350
4428.819645
4413.127651
4435.904112
4438.276368
4456.463811
4438.107371
4459.118235
4448.352777
4412.712349
4387.967953
4582.540138
4456.472136
4440.154896
4464.559679
4470.923573
4418.402730
4464.937726
4424.982645
4446.902631
4413.610101
4426.826464
4430.099919
4421.963628
4435.767210
4419.834862
4429.068932
4417.646181
4443.615362
4455.644954
4443.616226
4400.433314
4437.032690
4405.630229
4442.728906
4467.227611
4390.843238
4453.648230
4453.552496
4357.677042
4465.937473
4411.384931
4434.771951
4414.986504
4423.595270
4433.877093
4386.187573
4455.174030
4423.829707
4421.726539
4432.801967
4435.766334
4423.405049
4428.282599
4434.996872
4423.213123
4415.627960
4436.079268
4416.945336
4439.406959
4414.376142
4419.357232
4456.542104
4411.212660
4428.327701
4469.200392
4417.419231
4377.112381
4442.703339
4436.923128
4424.914700
4426.453007
4417.449369
4464.801649
4433.703913
4424.309326
4483.591811
4423.044206
4395.130439
4446.985741
4448.903285
4420.205842
4420.301992
4431.805594
4433.983152
4422.565026
4431.585922
4434.332904
4436.091032
4416.602292
4415.704969
4428.856163
4446.653404
4444.216520
4428.362112
4421.903169
4386.378449
4447.270618
4448.376930
4417.479439
4471.100785
4413.710808
4436.564604
4420.234915
4426.225857
4428.662692
4422.011889
4407.684341
4467.842144
4400.557823
4392.544707
4476.479227
4440.137671
4421.159692
4434.109454
4426.784558
4427.366039
4442.682021
4412.640769
4416.059118
4446.975646
4430.541501
4438.427265
4416.229138
4405.777602
4455.734802
4399.718377
4436.565744
4432.194606
4444.213607
4462.661785
4388.050456
4467.265463
4398.552686
4412.539619
4426.517487
4448.261329
4440.847762
4388.960843
4433.654388
4463.222583
4458.611842
4425.126675
4425.406330
4447.405784
4427.685125
4424.668294
4434.683071
4412.144020
4444.638118
4440.184296
4406.335171
4426.643525
4415.757242
4445.687970
4441.368373
4422.926131
4428.374257
4439.110047
4415.468964
4374.344520
4436.219404
4396.973498
4416.170361
4437.877055
4389.568029
4445.280906
4417.561529
4423.904152
4449.393672
4456.852891
4382.682738
4340.194586
4451.026732
4395.204520
4411.944036
4433.057980
4437.133370
4432.025865
4425.640163
4430.166229
4415.955276
4426.282460
4443.288580
4431.958407
4407.698152
4401.109986
4428.745753
4445.923662
4418.734184
4420.649922
4447.823772
4418.270395
4443.679209
4500.902737
4418.291556
4423.280569
4436.111136
4407.138025
4419.449771
4435.840349
4421.353593
4425.873510
4484.121454
4474.081677
4475.871790
4446.349181
4434.050001
4435.508899
4422.057333
4436.734098
4417.462007
4436.294187
4441.875694
4401.276527
4440.164020
4426.724935
4447.379854
4426.141531
4419.036707
4415.121019
4438.867439
4378.631978
4414.223521
4505.093177
4563.153908
4388.121093
4379.382220
4415.161353
4417.799412
4467.796555
4459.149973
4385.375659
4447.652177
4419.512991
4410.647465
4405.695045
4449.399789
4433.962949
4437.636839
4437.875990
4429.985126
4427.350131
4416.917343
4419.010258
4442.904458
4431.420100
4401.468618
4439.910577
4410.709036
4445.608131
4403.064254
4453.563901
4427.880831
4486.857431
4354.864602
4327.854548
4504.533324
4395.132260
4420.051057
4435.235923
4413.498241
4478.435340
4459.039498
4417.017666
4420.499189
4398.050358
4417.556579
4410.874362
4432.687864
4427.469571
4421.793670
4425.517198
4440.952987
4429.869367
4425.622899
4419.472627
4427.575594
4443.395759
4429.675861
4406.285026
4452.514191
4411.058302
4433.144570
4422.614149
4398.719723
4499.678823
4491.431588
4414.882878
4400.223975
4429.330558
4441.468869
4431.106334
4402.538271
4435.732006
4446.917222
4422.147602
4406.782231
4442.904510
4425.864076
4433.339228
4430.192074
4445.612796
4436.150069
4419.053708
4430.091136
4435.381306
4428.356449
4427.896300
4413.036471
4431.002278
4444.350671
4411.077954
4453.362510
4406.316983
4432.491119
4418.104689
4466.582692
4338.476038
4364.819702
4428.496293
4427.504709
4430.226192
4400.284647
4395.945734
4436.107005
4437.438105
4440.084127
4462.190270
4421.413640
4429.933736
4437.054049
4430.147031
4414.469031
4435.365844
4440.542214
4433.082340
4419.192732
4432.554668
4429.119918
4443.774512
4418.356690
4426.764993
4421.611311
4433.303176
4406.658843
4476.748025
4331.606804
4471.082459
4387.454513
4448.299778
4393.397570
4416.121546
4422.085491
4445.060805
4462.831580
4392.881345
4455.914071
4465.115410
4402.807574
4437.892519
4426.830258
4431.921526
4422.483338
4442.279050
4443.651505
4416.810034
4429.867282
4430.851091
4433.152764
4405.753506
4435.603550
4414.879125
4440.375570
4411.639295
4441.134279
4404.616433
4429.519886
4420.122472
4485.763925
4406.010312
4557.182983
4388.066595
4464.292635
4444.914477
4427.214458
4438.968608
4434.599186
4407.462190
4412.399211
4421.403172
4446.492270
4394.473673
4430.526722
4430.987050
4424.896901
4410.326388
4441.800184
4440.956510
4412.468020
4431.535479
4426.395185
4432.778016
4412.430410
4444.555843
4397.618963
4441.559555
4423.775099
4440.803134
4432.261419
4469.453229
4377.446862
4412.371201
4515.193199
4414.888604
4421.978355
4450.181660
4414.291946
4374.634236
4418.488184
4430.153321
4462.522357
4412.154883
4375.207735
4428.983125
4435.200867
4431.892758
4435.536220
4438.332788
4409.615934
4434.087632
4436.993080
4402.089411
4453.277373
4411.821646
4431.942027
4441.828233
4419.732935
4401.136086
4452.158130
4384.873899
4467.654859
4381.199496
4467.024432
4420.668984
4437.592397
4413.526336
4390.864538
4427.777812
4438.984318
4414.995535
4455.969436
4337.807418
4388.617372
4451.492569
4429.342273
4428.598319
4422.240342
4431.342639
4402.105491
4448.563785
4420.964168
4434.348267
4444.758800
4409.632526
4434.525125
4417.149489
4437.702830
4437.084211
4436.244329
4446.497144
4407.870858
4399.375509
4422.879160
4449.647681
4424.071592
4426.830694
4461.824046
4470.496110
4412.255127
4437.396970
4508.262186
4380.969084
4512.897637
4361.605373
4439.137390
4431.155000
4432.978556
4431.659576
4434.032799
4436.116456
4437.864632
4402.696372
4409.928139
4436.188583
4403.526274
4436.651322
4413.621818
4405.145136
4459.647365
4407.295765
4407.214192
4439.406249
4436.362887
4416.227523
4411.391161
4426.059046
4433.930140
4459.186201
4416.200834
4451.111386
4444.180262
4411.251293
4359.051963
4467.461053
4445.188696
4439.469304
4428.819192
4425.909684
4425.519712
4413.937973
4421.519303
4408.312059
4457.870584
4443.702286
4398.909573
4450.363420
4387.167407
4457.067038
4417.106549
4417.949618
4401.934823
4448.038116
4407.050829
4439.979376
4449.921273
4509.858210
4422.602837
4423.923430
4422.642950
4348.402950
4447.845599
4445.331976
4475.045137
4399.754055
4450.803573
4430.923305
4462.441502
4433.367404
4423.378879
4438.890070
4437.032725
4433.038042
4445.247285
4395.246469
4413.313725
4421.702873
4442.653822
4432.856537
4443.278844
4426.929970
4411.052116
4437.273609
4442.924761
4380.820046
4479.842704
4362.067505
4416.610209
4429.807783
4404.234631
4460.547184
4419.621477
4404.264209
4424.814493
4425.535265
4437.595346
4426.565501
4408.884837
4412.951212
4426.019418
4429.892681
4423.148418
4414.122529
4415.952942
4421.755284
4440.350310
4429.904820
4437.928588
4386.601820
4426.042581
4394.603382
4430.191933
4428.567279
4424.818658
4412.328687
4438.281392
4438.507361
4392.394910
4455.852804
4414.325419
4646.969883
4536.683053
4381.416032
4450.728926
4434.603650
4444.624656
4432.010691
4488.353944
4401.119962
4440.489193
4428.009087
4437.887309
4427.305513
4436.677766
4452.832574
4411.615362
4442.389903
4391.240778
4428.440067
4442.802758
4424.828780
4439.903270
4416.132140
4426.970396
4421.146875
4443.815405
4397.169483
4471.651047
4415.743491
4434.405647
4422.786904
4413.046822
4410.029716
4437.731372
4466.351664
4443.916228
4427.720673
4424.778091
4443.411373
4376.640722
4430.118803
4430.946801
4425.044703
4425.232750
4415.261486
4423.873931
4434.606584
4415.367913
4452.414301
4422.594494
4409.905216
4396.664705
4449.062407
4424.071588
4440.764286
4416.646760
4441.850536
4427.153350
4432.336192
4431.021413
4429.041459
4407.983492
4370.843745
4413.813074
4395.173968
4459.262250
4434.680348
4420.384417
4447.637043
4408.766436
4444.535196
4416.350966
4429.965172
4422.945485
4438.235276
4445.352692
4428.611086
4443.014887
4401.251497
4446.776413
4393.720574
4443.890323
4450.969092
4400.160335
4429.768094
4400.744010
4461.803428
4397.608418
4401.362503
4365.293766
4390.377148
4470.852288
4455.667523
4410.618659
4426.116162
4428.662285
4428.486794
4444.547346
4430.011747
4442.305064
4415.005686
4436.401063
4453.270542
4432.507857
4434.842380
4417.073877
4417.420117
4425.273150
4418.191835
4444.517987
4402.388158
4442.093850
4404.731770
4414.601796
4424.005575
4449.861633
4403.088901
4427.411394
4430.423878
4409.638266
4498.915749
4457.351108
4438.809907
4446.915006
4467.128460
4444.784515
4414.211738
4480.984974
4459.531923
4397.216034
4434.802809
4397.840035
4426.110970
4408.968073
4428.630637
4429.919397
4438.963223
4440.522226
4441.474069
4414.910727
4451.019059
4399.668129
4453.186871
4422.757454
4433.158994
4419.065696
4415.255909
4447.947376
4414.033656
4443.434015
4387.183854
4447.303329
4388.737841
4370.651671
4434.182431
4444.004127
4453.468501
4463.282934
4453.730813
4394.686577
4441.006687
4421.000483
4466.826432
4331.232495
4425.058057
4432.902989
4428.583752
4430.283283
4407.045915
4432.821904
4433.917499
4396.239309
4452.021862
4395.066846
4420.492731
4444.132011
4426.784975
4419.462711
4434.404369
4417.703895
4443.550877
4412.917868
4385.328220
4471.776426
4469.520318
4451.548540
4398.741764
4388.964428
4448.525986
4419.480709
4404.786969
4399.906913
4440.437532
4455.063595
4449.976680
4421.047335
4442.165978
4429.887763
4434.411405
4446.240742
4429.956391
4429.990110
4407.087557
4439.429040
4408.952338
4444.081899
4388.530390
4459.732753
4409.043899
4428.689337
4387.118260
4440.205308
4445.868379
4469.686167
4344.771536
4473.508764
4460.744921
4461.256529
4488.607266
4428.088990
4467.353422
4447.323073
4429.216645
4398.784073
4357.685721
4396.225340
4436.284093
4432.234454
4421.999260
4424.329583
4409.866748
4421.257307
4431.882153
4407.331497
4416.462242
4402.701147
4449.892920
4399.645817
4439.963688
4384.043680
4472.328154
4412.463040
4430.436276
4378.101096
4448.221492
4299.157880
4491.759104
4493.065148
4423.245856
4507.605792
4458.246797
4423.992838
4436.855463
4414.416482
4493.624436
4372.304841
4482.651640
4447.753002
4423.428688
4433.125507
4442.489012
4431.955078
4437.214013
4435.573843
4420.836299
4435.161155
4461.342410
4408.856811
4390.590022
4434.853165
4428.125682
4415.089945
4401.282414
4466.761493
4370.034270
4470.011753
4455.399932
4510.369614
4433.022632
4423.617733
4433.945520
4453.909961
4419.839035
4424.867292
4447.661611
4442.358156
4396.811757
4380.976803
4455.007437
4421.938523
4433.991230
4405.922666
4430.006630
4424.613903
4443.260194
4412.483759
4386.740446
4376.833183
4458.225888
4448.407919
4434.087219
4400.672761
4453.912088
4431.213558
4430.772682
4450.871581
4445.588394
4450.364937
4471.511447
4645.263998
4485.087786
4408.882792
4437.047940
4437.632740
4458.988138
4442.790837
4450.592435
4449.712349
4439.521036
4415.763789
4424.060316
4436.938496
4429.411300
4436.201416
4397.050799
4400.990074
4453.069314
4457.545863
4456.891388
4409.550306
4390.701329
4418.130449
4444.053480
4431.245001
4383.957112
4432.049673
4426.812910
4404.145848
4424.829787
4427.647187
4399.350062
4421.704666
4492.749045
4421.948660
4485.369475
4430.005445
4456.083118
4424.208887
4450.703750
4441.889107
4408.304864
4424.504700
4425.787119
4405.567465
4420.185303
4449.245364
4411.524229
4399.510792
4451.370881
4399.126502
4454.266885
4420.263197
4429.906505
4410.424540
4440.356101
4453.776201
4437.777073
4385.255519
4428.728970
4470.752035
4457.941192
4429.376658
4438.168215
4466.818133
4447.191492
4436.069920
4440.334088
4458.376465
4381.620294
4375.522720
4419.559719
4398.444522
4423.871699
4417.073699
4447.312715
4434.621628
4418.484179
4428.754753
4429.369464
4419.957247
4426.892161
4438.996501
4413.696338
4412.949887
4426.098760
4392.154160
4454.350593
4404.738317
4440.138000
4339.505613
4453.430695
4491.658460
4412.816304
4452.636156
4459.137741
4450.887049
4441.488473
4480.138049
4456.831780
4471.467234
4467.689386
4471.327007
4407.749478
4420.564688
4434.029849
4406.344945
4422.965459
4416.568557
4407.675458
4417.741408
4414.310966
4435.925165
4397.843568
4415.561603
4435.703530
4391.475577
4442.742115
4438.099661
4423.682304
4412.252221
4414.603796
4456.527072
4411.061516
4454.655499
4483.671613
4419.108055
4461.117618
4449.869915
4433.272789
4441.341086
4440.609337
4383.553292
4410.434276
4413.089596
4422.471559
4432.350164
4427.041910
4422.366456
4448.314573
4418.132462
4455.234436
4426.439683
4422.541439
4418.740408
4441.877686
4440.860471
4404.354645
4414.030558
4414.259979
4434.700837
4455.690581
4384.277025
4431.157998
4451.447600
4409.985297
4444.218139
4449.333989
4469.529838
4369.202085
4459.609871
4418.852992
4426.438537
4468.453638
4434.501648
4415.675827
4423.818460
4419.673431
4424.847797
4421.366332
4405.277955
4444.240250
4390.860412
4452.544709
4413.727095
4399.081184
4377.459511
4446.735218
4450.534270
4404.052041
4424.508964
4423.565369
4399.269998
4415.447026
4405.122348
4414.683323
4428.150311
4453.353691
4467.170012
4446.681617
4451.917264
4461.402023
4439.080402
4406.421099
4435.009772
4373.202920
4421.664291
4422.697957
4422.940366
4429.946884
4430.866834
4414.245133
4446.205920
4421.543444
4427.888415
4424.370754
4433.901750
4426.932548
4412.892088
4394.564876
4422.421105
4411.074721
4420.456082
4408.775743
4476.481875
4423.364785
4489.189592
4454.967387
4501.577351
4481.706523
4430.792781
4469.674269
4464.762894
4416.295321
4402.641357
4453.376306
4407.507331
4421.250013
4421.073169
4432.640050
4409.816012
4424.221941
4436.154769
4388.796833
4436.748699
4423.420797
4428.268188
4438.335650
4402.129597
4414.072217
4429.659948
4441.747678
4435.164485
4406.545824
4449.718184
4410.657827
4398.988565
4450.688301
4481.497375
4409.730164
4482.760589
4468.427279
4453.152256
4452.709418
4457.235360
4406.125063
4395.406785
4411.029088
4421.787647
4419.090363
4419.861591
4436.802935
4411.845554
4438.265821
4436.072763
4422.019428
4418.865426
4419.370108
4438.836575
4430.616903
4451.424068
4418.004312
4423.197152
4413.627921
4432.564054
4442.295665
4411.802491
4468.203342
4428.441559
4478.715138
4468.919117
4462.313128
4459.907420
4464.924165
4448.932161
4443.664960
4450.001835
4439.966390
4420.543087
4465.502934
4424.270747
4430.780286
4426.784143
4421.732580
4407.723319
4433.256452
4418.199081
4435.083665
4392.744552
4435.513038
4424.943269
4392.710961
4451.576144
4422.460264
4427.551942
4443.844420
4429.892163
4421.462709
4439.967414
4425.408412
4454.284254
4459.384225
4435.693187
4468.436259
4447.951234
4449.137722
4449.305666
4481.213942
4478.118597
4419.643373
4368.272854
4428.587481
4429.624598
4414.177345
4433.968278
4436.348222
4409.164205
4430.435628
4426.157749
4411.999617
4438.405428
4406.137612
4429.338214
4433.889095
4411.821691
4418.970426
4407.162062
4431.097576
4454.973050
4429.416753
4451.759370
4428.452327
4456.715410
4477.819975
4466.679027
4441.925981
4435.422563
4358.464642
4468.569105
4437.247373
4390.740398
4451.081476
4427.225127
4431.224939
4438.740506
4413.204121
4408.411619
4423.354835
4415.536564
4413.744609
4423.554443
4425.511799
4417.347977
4424.979501
4419.415977
4426.760796
4429.963914
4424.585510
4387.535111
4447.172465
4429.718375
4414.323082
4455.513133
4462.728603
4451.245904
4420.618510
4454.577240
4441.014338
4450.396804
4433.708391
4506.618824
4406.134400
4459.419870
4440.205436
4415.089085
4433.830552
4428.778690
4425.549349
4442.418449
4416.901814
4433.431123
4439.590055
4407.827128
4424.342419
4418.824164
4426.960403
4446.528568
4410.355727
4433.089722
4434.875033
4444.731258
4460.579959
4435.247682
4471.076083
4399.734882
4463.210554
4461.227145
4442.158731
4454.373701
4483.618573
4439.877219
4489.206558
4427.260567
4328.789479
4430.224497
4427.591599
4424.996372
4417.154315
4431.417623
4400.638743
4452.547116
4414.816510
4432.981413
4427.477986
4394.708344
4433.281429
4421.509947
4408.630782
4430.969521
4420.660110
4426.300601
4419.172387
4415.972781
4448.710173
4462.792701
4432.195907
4449.332939
4414.165882
4446.638650
4429.428141
4391.262272
4382.291857
4459.488059
4443.166777
4523.000174
4429.774763
4424.639495
4447.804252
4407.424672
4434.522378
4418.581781
4422.791972
4402.950946
4409.434691
4441.597294
4434.075665
4444.229027
4432.723876
4408.213526
4434.432068
4424.140323
4422.753207
4433.451883
4422.639110
4415.258655
4429.784485
4435.799176
4432.874934
4427.225421
4429.878739
4443.821197
4478.849509
4424.222824
4418.460550
4385.410677
4393.526294
4429.126997
4422.208035
4408.477088
4434.994996
4417.033245
4443.606192
4416.655862
4430.233155
4441.127504
4395.462760
4427.597911
4412.373709
4446.416391
4427.353139
4411.152304
4424.982865
4440.870117
4427.464146
4432.495964
4427.807867
4443.844760
4456.516806
4429.981780
4451.580344
4425.758518
4439.814770
4475.688059
4468.395342
4432.383299
4442.215893
4477.177472
4427.122596
4427.900947
4433.017985
4427.820399
4435.800645
4411.979302
4447.207800
4417.383698
4428.030565
4439.424933
4445.133693
4418.954535
4417.894045
4433.736965
4423.105627
4406.667452
4433.798019
4437.355265