# vtk DataFile Version 2.0
mfree iwf
ASCII

DATASET UNSTRUCTURED_GRID
POINTS 6231 float
0.000000 0.000300 0.000000
0.000000 0.000310 0.000000
0.000000 0.000320 0.000000
0.000000 0.000330 0.000000
0.000000 0.000340 0.000000
0.000000 0.000350 0.000000
0.000000 0.000360 0.000000
0.000001 0.000370 0.000000
0.000001 0.000380 0.000000
0.000001 0.000390 0.000000
0.000001 0.000400 0.000000
0.000001 0.000410 0.000000
0.000001 0.000420 0.000000
0.000001 0.000430 0.000000
0.000001 0.000440 0.000000
0.000001 0.000450 0.000000
0.000002 0.000460 0.000000
0.000002 0.000470 0.000000
0.000002 0.000480 0.000000
0.000001 0.000492 0.000000
0.000006 0.000501 0.000000
0.000683 0.000891 0.000000
0.000749 0.000938 0.000000
0.000698 0.000901 0.000000
0.000761 0.000944 0.000000
0.000782 0.000953 0.000000
0.000830 0.000964 0.000000
0.000838 0.000964 0.000000
0.000851 0.000960 0.000000
0.000864 0.000960 0.000000
0.000895 0.000964 0.000000
0.000010 0.000300 0.000000
0.000010 0.000310 0.000000
0.000010 0.000320 0.000000
0.000010 0.000330 0.000000
0.000010 0.000340 0.000000
0.000010 0.000350 0.000000
0.000010 0.000360 0.000000
0.000011 0.000370 0.000000
0.000011 0.000380 0.000000
0.000011 0.000390 0.000000
0.000011 0.000400 0.000000
0.000011 0.000410 0.000000
0.000011 0.000420 0.000000
0.000011 0.000430 0.000000
0.000011 0.000440 0.000000
0.000011 0.000450 0.000000
0.000012 0.000460 0.000000
0.000011 0.000471 0.000000
0.000013 0.000478 0.000000
0.000009 0.000492 0.000000
0.000013 0.000498 0.000000
0.000801 0.000953 0.000000
0.000816 0.000955 0.000000
0.000824 0.000957 0.000000
0.000830 0.000956 0.000000
0.000847 0.000952 0.000000
0.000858 0.000952 0.000000
0.000873 0.000950 0.000000
0.000884 0.000953 0.000000
0.000890 0.000952 0.000000
0.000892 0.000960 0.000000
0.000020 0.000300 0.000000
0.000020 0.000310 0.000000
0.000020 0.000320 0.000000
0.000020 0.000330 0.000000
0.000021 0.000340 0.000000
0.000020 0.000350 0.000000
0.000021 0.000360 0.000000
0.000021 0.000370 0.000000
0.000020 0.000380 0.000000
0.000021 0.000390 0.000000
0.000021 0.000400 0.000000
0.000021 0.000410 0.000000
0.000020 0.000420 0.000000
0.000022 0.000430 0.000000
0.000020 0.000439 0.000000
0.000023 0.000451 0.000000
0.000021 0.000460 0.000000
0.000022 0.000470 0.000000
0.000021 0.000481 0.000000
0.000024 0.000494 0.000000
0.000020 0.000497 0.000000
0.000770 0.000937 0.000000
0.000798 0.000947 0.000000
0.000808 0.000950 0.000000
0.000813 0.000948 0.000000
0.000823 0.000943 0.000000
0.000838 0.000949 0.000000
0.000865 0.000946 0.000000
0.000880 0.000948 0.000000
0.000888 0.000940 0.000000
0.000896 0.000939 0.000000
0.000030 0.000300 0.000000
0.000030 0.000310 0.000000
0.000030 0.000320 0.000000
0.000031 0.000330 0.000000
0.000030 0.000340 0.000000
0.000030 0.000349 0.000000
0.000030 0.000360 0.000000
0.000030 0.000370 0.000000
0.000031 0.000380 0.000000
0.000031 0.000390 0.000000
0.000031 0.000400 0.000000
0.000031 0.000411 0.000000
0.000031 0.000420 0.000000
0.000032 0.000430 0.000000
0.000031 0.000440 0.000000
0.000030 0.000450 0.000000
0.000031 0.000459 0.000000
0.000036 0.000473 0.000000
0.000029 0.000478 0.000000
0.000032 0.000488 0.000000
0.000032 0.000497 0.000000
0.000063 0.000500 0.000000
0.000791 0.000941 0.000000
0.000807 0.000934 0.000000
0.000835 0.000940 0.000000
0.000844 0.000934 0.000000
0.000849 0.000945 0.000000
0.000855 0.000938 0.000000
0.000866 0.000937 0.000000
0.000873 0.000937 0.000000
0.000896 0.000930 0.000000
0.000040 0.000300 0.000000
0.000040 0.000310 0.000000
0.000040 0.000320 0.000000
0.000040 0.000329 0.000000
0.000040 0.000340 0.000000
0.000041 0.000351 0.000000
0.000040 0.000360 0.000000
0.000040 0.000370 0.000000
0.000041 0.000380 0.000000
0.000040 0.000390 0.000000
0.000042 0.000399 0.000000
0.000040 0.000410 0.000000
0.000042 0.000419 0.000000
0.000040 0.000431 0.000000
0.000042 0.000439 0.000000
0.000043 0.000450 0.000000
0.000043 0.000460 0.000000
0.000037 0.000469 0.000000
0.000045 0.000477 0.000000
0.000043 0.000496 0.000000
0.000040 0.000498 0.000000
0.000606 0.000734 0.000000
0.000800 0.000933 0.000000
0.000819 0.000935 0.000000
0.000826 0.000930 0.000000
0.000833 0.000938 0.000000
0.000855 0.000929 0.000000
0.000877 0.000927 0.000000
0.000877 0.000917 0.000000
0.000886 0.000931 0.000000
0.000895 0.000921 0.000000
0.000050 0.000300 0.000000
0.000050 0.000310 0.000000
0.000050 0.000319 0.000000
0.000049 0.000331 0.000000
0.000052 0.000340 0.000000
0.000050 0.000348 0.000000
0.000051 0.000360 0.000000
0.000050 0.000371 0.000000
0.000052 0.000379 0.000000
0.000050 0.000390 0.000000
0.000052 0.000400 0.000000
0.000049 0.000411 0.000000
0.000053 0.000420 0.000000
0.000051 0.000430 0.000000
0.000053 0.000440 0.000000
0.000047 0.000450 0.000000
0.000054 0.000458 0.000000
0.000053 0.000470 0.000000
0.000055 0.000482 0.000000
0.000048 0.000488 0.000000
0.000050 0.000498 0.000000
0.000787 0.000947 0.000000
0.000746 0.000928 0.000000
0.000814 0.000929 0.000000
0.000830 0.000919 0.000000
0.000843 0.000923 0.000000
0.000860 0.000923 0.000000
0.000852 0.000917 0.000000
0.000868 0.000925 0.000000
0.000885 0.000919 0.000000
0.000892 0.000910 0.000000
0.000060 0.000300 0.000000
0.000060 0.000310 0.000000
0.000060 0.000321 0.000000
0.000061 0.000329 0.000000
0.000060 0.000339 0.000000
0.000059 0.000352 0.000000
0.000063 0.000359 0.000000
0.000059 0.000368 0.000000
0.000062 0.000381 0.000000
0.000060 0.000391 0.000000
0.000063 0.000400 0.000000
0.000059 0.000409 0.000000
0.000063 0.000418 0.000000
0.000058 0.000430 0.000000
0.000065 0.000439 0.000000
0.000061 0.000450 0.000000
0.000065 0.000460 0.000000
0.000055 0.000472 0.000000
0.000064 0.000475 0.000000
0.000068 0.000486 0.000000
0.000058 0.000496 0.000000
0.000777 0.000945 0.000000
0.000791 0.000932 0.000000
0.000808 0.000917 0.000000
0.000821 0.000919 0.000000
0.000838 0.000912 0.000000
0.000845 0.000906 0.000000
0.000873 0.000907 0.000000
0.000863 0.000913 0.000000
0.000882 0.000907 0.000000
0.000891 0.000901 0.000000
0.000070 0.000300 0.000000
0.000070 0.000310 0.000000
0.000070 0.000320 0.000000
0.000070 0.000330 0.000000
0.000070 0.000341 0.000000
0.000071 0.000349 0.000000
0.000071 0.000359 0.000000
0.000067 0.000373 0.000000
0.000077 0.000376 0.000000
0.000069 0.000389 0.000000
0.000073 0.000400 0.000000
0.000069 0.000412 0.000000
0.000074 0.000421 0.000000
0.000069 0.000430 0.000000
0.000075 0.000439 0.000000
0.000066 0.000451 0.000000
0.000077 0.000459 0.000000
0.000073 0.000470 0.000000
0.000076 0.000485 0.000000
0.000068 0.000495 0.000000
0.000076 0.000496 0.000000
0.000601 0.000709 0.000000
0.000779 0.000931 0.000000
0.000801 0.000923 0.000000
0.000823 0.000902 0.000000
0.000839 0.000921 0.000000
0.000854 0.000906 0.000000
0.000863 0.000906 0.000000
0.000860 0.000895 0.000000
0.000879 0.000898 0.000000
0.000889 0.000891 0.000000
0.000080 0.000300 0.000000
0.000080 0.000310 0.000000
0.000080 0.000320 0.000000
0.000080 0.000330 0.000000
0.000081 0.000340 0.000000
0.000081 0.000351 0.000000
0.000081 0.000363 0.000000
0.000077 0.000369 0.000000
0.000079 0.000383 0.000000
0.000078 0.000392 0.000000
0.000088 0.000396 0.000000
0.000079 0.000408 0.000000
0.000084 0.000417 0.000000
0.000079 0.000429 0.000000
0.000087 0.000444 0.000000
0.000077 0.000447 0.000000
0.000086 0.000463 0.000000
0.000074 0.000470 0.000000
0.000087 0.000473 0.000000
0.000085 0.000482 0.000000
0.000084 0.000495 0.000000
0.000768 0.000942 0.000000
0.000740 0.000933 0.000000
0.000808 0.000905 0.000000
0.000818 0.000914 0.000000
0.000832 0.000904 0.000000
0.000839 0.000895 0.000000
0.000849 0.000896 0.000000
0.000870 0.000894 0.000000
0.000878 0.000888 0.000000
0.000886 0.000881 0.000000
0.000090 0.000300 0.000000
0.000090 0.000310 0.000000
0.000090 0.000320 0.000000
0.000090 0.000329 0.000000
0.000090 0.000340 0.000000
0.000090 0.000349 0.000000
0.000090 0.000359 0.000000
0.000092 0.000368 0.000000
0.000091 0.000379 0.000000
0.000091 0.000388 0.000000
0.000086 0.000406 0.000000
0.000094 0.000409 0.000000
0.000090 0.000425 0.000000
0.000095 0.000425 0.000000
0.000088 0.000436 0.000000
0.000097 0.000455 0.000000
0.000086 0.000454 0.000000
0.000097 0.000471 0.000000
0.000106 0.000480 0.000000
0.000089 0.000494 0.000000
0.000094 0.000495 0.000000
0.000611 0.000751 0.000000
0.000774 0.000926 0.000000
0.000762 0.000931 0.000000
0.000793 0.000923 0.000000
0.000819 0.000893 0.000000
0.000845 0.000886 0.000000
0.000858 0.000888 0.000000
0.000865 0.000883 0.000000
0.000875 0.000879 0.000000
0.000883 0.000872 0.000000
0.000100 0.000300 0.000000
0.000100 0.000310 0.000000
0.000101 0.000319 0.000000
0.000100 0.000331 0.000000
0.000101 0.000340 0.000000
0.000101 0.000350 0.000000
0.000100 0.000361 0.000000
0.000099 0.000372 0.000000
0.000100 0.000380 0.000000
0.000101 0.000391 0.000000
0.000099 0.000400 0.000000
0.000104 0.000407 0.000000
0.000100 0.000418 0.000000
0.000100 0.000436 0.000000
0.000110 0.000443 0.000000
0.000097 0.000445 0.000000
0.000108 0.000460 0.000000
0.000098 0.000467 0.000000
0.000095 0.000481 0.000000
0.000106 0.000491 0.000000
0.000101 0.000494 0.000000
0.000703 0.000905 0.000000
0.000711 0.000911 0.000000
0.000734 0.000929 0.000000
0.000819 0.000903 0.000000
0.000833 0.000892 0.000000
0.000835 0.000882 0.000000
0.000856 0.000878 0.000000
0.000848 0.000874 0.000000
0.000871 0.000872 0.000000
0.000880 0.000863 0.000000
0.000110 0.000300 0.000000
0.000110 0.000310 0.000000
0.000109 0.000321 0.000000
0.000111 0.000329 0.000000
0.000110 0.000339 0.000000
0.000110 0.000350 0.000000
0.000110 0.000359 0.000000
0.000113 0.000368 0.000000
0.000111 0.000378 0.000000
0.000111 0.000390 0.000000
0.000112 0.000399 0.000000
0.000110 0.000414 0.000000
0.000116 0.000422 0.000000
0.000107 0.000427 0.000000
0.000111 0.000433 0.000000
0.000106 0.000449 0.000000
0.000114 0.000461 0.000000
0.000111 0.000470 0.000000
0.000116 0.000480 0.000000
0.000111 0.000493 0.000000
0.000119 0.000491 0.000000
0.000657 0.000852 0.000000
0.000617 0.000772 0.000000
0.000768 0.000921 0.000000
0.000792 0.000911 0.000000
0.000782 0.000907 0.000000
[...]
POINT_DATA 6231
SCALARS density float 1
LOOKUP_TABLE default
4415.978217
4425.802977
4422.709481
4425.762964
4426.640526
4425.552770
4424.312291
4424.394758
4428.603076
4429.388056
4425.285425
4429.466689
4427.485149
4428.549156
4430.871618
4440.756222
4423.549069
4432.330869
4412.738319
4424.184294
4411.304092
4422.761969
4427.563578
4432.437650
4441.951806
4421.008219
4397.782948
4430.724042
4450.640789
4453.377100
4418.067894
4416.731845
4421.396181
4428.994305
4427.098924
4418.456574
4428.492497
4430.903239
4431.582157
4428.374329
4430.504957
4427.797380
4435.790197
4428.269314
4440.029399
4416.584984
4426.019999
4409.864740
4444.136396
4461.121746
4460.049312
4416.136573
4408.282207
4414.571275
4434.820584
4505.155857
4391.482654
4399.683846
4425.852518
4403.303674
4456.902057
4443.826003
4420.595958
4433.285726
4427.912834
4422.198073
4436.905367
4430.006288
4416.310054
4432.244197
4418.826285
4430.640422
4428.854666
4428.148673
4414.937168
4436.660675
4415.113826
4478.440925
4399.806864
4453.073687
4352.403542
4449.948100
4420.954718
4420.489966
4426.784975
4412.368503
4508.670908
4328.144560
4368.102531
4416.319195
4420.107002
4421.864982
4399.073609
4428.713154
4428.432208
4419.651885
4433.197885
4434.002051
4425.752341
4432.578518
4437.366831
4425.863222
4439.260633
4409.096335
4446.052885
4425.770874
4446.402059
4405.101563
4429.826886
4391.190323
4456.816377
4368.467951
4554.165396
4371.612107
4429.752413
4456.044367
4435.780908
4484.688045
4341.295243
4489.428339
4467.454859
4406.867186
4480.725698
4440.137176
4430.165612
4427.868371
4438.069609
4441.854813
4415.796925
4440.623761
4434.047202
4422.644822
4419.412518
4436.915952
4415.677819
4443.963080
4400.929458
4442.499576
4419.018221
4448.650877
4393.175244
4506.515966
4311.853459
4419.284530
4384.073049
4441.449218
4420.778414
4429.843646
4423.144813
4479.961427
4426.976932
4405.599082
4489.839450
4439.755702
4414.485398
4429.693827
4431.578852
4420.330286
4422.829732
4440.766691
4441.212620
4408.065571
4450.415310
4430.673493
4426.536453
4429.123277
4433.439934
4427.583073
4451.572784
4373.603683
4480.402831
4362.404803
4470.434253
4358.282785
4537.133969
4382.253698
4445.288460
4427.778413
4446.365871
4407.823103
4440.817431
4443.791531
4390.059736
4401.189185
4415.241609
4416.270808
4431.103473
4435.001972
4430.679163
4446.486926
4423.705232
4425.569900
4435.964119
4434.506362
4394.138096
4443.926198
4420.770265
4434.844727
4410.436312
4431.424722
4423.601536
4461.831946
4408.164300
4516.855995
4382.313446
4484.150842
4431.763025
4417.589668
4398.096635
4416.478124
4461.418873
4466.707557
4426.291645
4402.890276
4420.990176
4422.987250
4426.426240
4427.362215
4424.594090
4422.152331
4421.159239
4425.710767
4440.896414
4421.010815
4417.739441
4422.353926
4448.742452
4390.557101
4435.410710
4420.668009
4438.882797
4433.252627
4450.740734
4441.611863
4446.885208
4447.815960
4411.311399
4390.560824
4442.106253
4450.900581
4436.268006
4451.035210
4437.518220
4430.375488
4454.368942
4441.974918
4450.972398
4410.725625
4426.306385
4429.372064
4435.895223
4413.299997
4434.432974
4422.294069
4423.101060
4445.487103
4431.762424
4424.649027
4409.231473
4441.825327
4397.916056
4436.812970
4468.424810
4389.347620
4458.171731
4446.965139
4368.312286
4462.581841
4414.134225
4434.899862
4416.756452
4413.162704
4439.957496
4370.874788
4472.451205
4419.594634
4401.603479
4435.860055
4436.723639
4429.331132
4425.684829
4429.012064
4425.046468
4423.499049
4425.657065
4447.811388
4420.834544
4422.032474
4452.429755
4446.443476
4407.312989
4435.073137
4456.320202
4414.363316
4379.165001
4437.453668
4433.878445
4423.969068
4425.473949
4416.095371
4426.520025
4432.507430
4423.944328
4475.142445
4400.695550
4393.863628
4444.713165
4434.423009
4432.372496
4416.367680
4429.217861
4427.261463
4428.208800
4436.297875
4431.927128
4425.079872
4421.206270
4436.418528
4445.194515
4397.318908
4435.569298
4445.059574
4426.773741
4383.439683
4444.692434
4447.628596
4421.622861
4461.273023
4415.402311
4439.126941
4420.096465
4423.185416
4430.732800
4421.879638
4439.693611
4456.274199
4370.753539
4401.813580
4472.564112
4451.084039
4420.591728
4427.825244
4437.612604
4433.085937
4424.134850
4423.792807
4436.347348
4432.573332
4431.652720
4417.032789
4442.081568
4423.418249
4432.609088
4402.377800
4444.586199
4433.979997
4436.442446
4457.882820
4397.207951
4462.986909
4399.566485
4410.639367
4435.340562
4434.536134
4438.205646
4402.025012
4434.666090
4467.944799
4452.979264
4411.256602
4424.343699
4453.814359
4437.207085
4428.935517
4418.356739
4439.885373
4427.421580
4424.348849
4416.693799
4443.301388
4399.774408
4450.476752
4401.017330
4422.664188
4457.553160
4432.518992
4433.425213
4379.133204
4449.713118
4404.272532
4425.731237
4432.048185
4388.433389
4439.769282
4421.700361
4429.823530
4449.780754
4453.530616
4418.913759
4340.028558
4461.454084
4389.689727
4416.759353
4432.950884
4437.107818
4430.462811
4437.396672
4418.750284
4439.726387
4428.093889
4436.868181
4419.107020
4434.195778
4443.926475
4403.373833
4420.014653
4439.954072
4413.103363
4441.593081
4407.322624
4440.555215
4511.031643
4416.247095
4439.872816
4435.430666
4417.587633
4419.528383
4435.026395
4427.146418
4442.424564
4474.279161
4474.857898
4488.686322
4452.244084
4431.590124
4435.060217
4430.730716
4416.102872
4436.464463
4419.238986
4436.602374
4407.168664
4445.829283
4412.664988
4423.878419
4441.792763
4429.367417
4415.436060
4452.232692
4379.432070
4424.138798
4503.250238
4556.387412
4383.187978
4378.895402
4411.846226
4419.402366
4447.796864
4450.344115
4382.938739
4454.919115
4407.444115
4401.698666
4406.013804
4448.845473
4434.147760
4431.775558
4433.368080
4435.541998
4433.259746
4414.579251
4428.329057
4444.276224
4424.886134
4405.325481
4457.476534
4422.237181
4432.354966
4419.908088
4459.122445
4411.058098
4497.516017
4354.409222
4323.123437
4480.876860
4398.305008
4412.779012
4439.372759
4429.718106
4490.581290
4443.160963
4414.690753
4440.884408
4390.572683
4425.874101
4412.363567
4433.629413
4429.643230
4432.001870
4418.951323
4433.036629
4430.842108
4415.529862
4408.298388
4394.896840
4454.396088
4433.712593
4400.724010
4451.892027
4400.503971
4422.633613
4459.488469
4389.162242
4484.455088
4483.261103
4419.690616
4404.739164
4424.725418
4448.297444
4418.840939
4379.556563
4454.686164
4448.314233
4418.502601
4400.104669
4432.428941
4429.135782
4434.346535
4427.213588
4435.308597
4436.881253
4433.275752
4425.977191
4429.728679
4439.016234
4424.731380
4427.318712
4444.986447
4430.247715
4416.866038
4451.124042
4427.387958
4435.051698
4389.460434
4489.708017
4352.075834
4368.661072
4426.451718
4425.073748
4437.860130
4443.369089
4400.925692
4436.977709
4424.405492
4443.953284
4466.731687
4436.910509
4438.672717
4431.952103
4430.172566
4427.597175
4433.806932
4428.119447
4431.492205
4425.950784
4414.087170
4441.559747
4446.463183
4398.016738
4441.132590
4412.848670
4429.582378
4386.192214
4464.716773
4355.922332
4463.991708
4400.576094
4446.725472
4391.648031
4430.383430
4431.261686
4444.730467
4459.452670
4403.759077
4460.227879
4455.327803
4411.775806
4412.514718
4422.490022
4431.711522
4428.163949
4429.657818
4425.560876
4435.730126
4433.280133
4430.543860
4442.471842
4407.592168
4418.906115
4426.119739
4445.118955
4418.254881
4434.836876
4441.022681
4456.577960
4380.879233
4448.683743
4430.671443
4574.463690
4373.647444
4474.461741
4426.259423
4438.851958
4430.824251
4392.419611
4452.898979
4401.372142
4408.626549
4427.249658
4414.756600
4430.921917
4431.438030
4433.730315
4431.523963
4424.021135
4430.480509
4415.490837
4433.535196
4433.462177
4421.564955
4435.592192
4414.016533
4412.303024
4431.522972
4408.926881
4464.077401
4455.673286
4465.811741
4370.061502
4378.633841
4468.247124
4410.093815
4423.196343
4458.463746
4422.824472
4391.471601
4420.584915
4442.013516
4463.448577
4407.669690
4407.325081
4433.520454
4432.344187
4425.632589
4431.478008
4428.146135
4441.459798
4427.262554
4420.813116
4423.685826
4429.648387
4414.338933
4441.312393
4442.311660
4431.741299
4391.776737
4450.457333
4418.379388
4443.718548
4400.124658
4462.157667
4412.852901
4444.852714
4414.209268
4421.011627
4438.660845
4420.649255
4403.276239
4449.599141
4355.595362
4421.880469
4447.612616
4429.324577
4426.553182
4431.916284
4438.018838
4421.726416
4413.837117
4432.098868
4444.264181
4410.560552
4435.750228
4423.801833
4417.273008
4459.337761
4395.711356
4406.461995
4465.518133
4376.307766
4394.476189
4435.821940
4447.075622
4422.339047
4424.862903
4435.159423
4456.789540
4407.671009
4441.230728
4473.964088
4374.838484
4474.146619
4367.845852
4422.804626
4427.546178
4433.643845
4433.098565
4418.507340
4429.892756
4450.481508
4417.287856
4411.162812
4418.221654
4446.234446
4395.065759
4434.210363
4432.035491
4434.314206
4444.644849
4402.835976
4447.240779
4427.400154
4403.354338
4440.636658
4422.383519
4418.838558
4472.144094
4420.432440
4438.361253
4461.393613
4440.277455
4362.100824
4439.830877
4411.710652
4456.508533
4429.554064
4427.019478
4422.100463
4434.453340
4425.879393
4410.044333
4427.983519
4436.507735
4426.993375
4425.436850
4426.903949
4443.633401
4415.778517
4409.270604
4405.157221
4429.341926
4398.191920
4464.152129
4438.248161
4491.789321
4409.891803
4413.362907
4451.531106
4417.551041
4440.421846
4439.285978
4465.283470
4416.004470
4460.469626
4433.666608
4439.331636
4430.041291
4433.087674
4429.518330
4434.425354
4422.756463
4431.471442
4429.047415
4404.115128
4421.117380
4429.197758
4437.175334
4421.619794
4427.318406
4422.047256
4448.956948
4456.507964
4401.806317
4457.378404
4361.574349
4415.855929
4430.556884
4407.354424
4457.634602
4449.926518
4418.448870
4414.612207
4419.086746
4425.036550
4403.396382
4421.679316
4415.233408
4425.971658
4434.113276
4421.584584
4426.124826
4418.377448
4437.004919
4406.223151
4439.718993
4445.388578
4408.357734
4410.236504
4450.607624
4408.918170
4425.873763
4409.766402
4424.321471
4421.380512
4466.795285
4412.493236
4447.778032
4419.174527
4548.931845
4427.043803
4366.500098
4421.482898
4445.041835
4418.887802
4445.859005
4496.862286
4422.807702
4449.615840
4429.872224
4432.433345
4422.934845
4443.070683
4432.373681
4425.468348
4429.179131
4429.966427
4386.934181
4446.707383
4433.597708
4425.325117
4411.945113
4449.454592
4418.437146
4470.759968
4397.422916
4474.313494
4402.544664
4430.208607
4416.053505
4421.434563
4429.784157
4431.019553
4420.681038
4445.581760
4414.473845
4435.217367
4389.716092
4380.152255
4437.641668
4425.804457
4431.701137
4429.435511
4421.188870
4421.124326
4443.640716
4422.385414
4421.764259
4441.158740
4439.801236
4393.316069
4439.937533
4433.249244
4439.145675
4420.518816
4428.387814
4409.833178
4453.881871
4427.516551
4432.313309
4410.163483
4425.811675
4421.230558
4426.545545
4496.242893
4400.614713
4409.886194
4439.566342
4388.798533
4434.577952
4408.101356
4425.334038
4429.960492
4426.817374
4434.080082
4448.385250
4411.702745
4426.635017
4435.296946
4400.606065
4416.128566
4443.816159
4432.888015
4422.211983
4398.832713
4452.543824
4437.011145
4393.161276
4367.171577
4387.565158
4462.205255
4445.054186
4410.133918
4398.545469
4403.229718
4447.366416
4422.942170
4436.578434
4463.229265
4461.778630
4428.854462
4460.872204
4435.502979
4434.371049
4426.262244
4426.666357
4415.916170
4442.186620
4439.299812
4414.731679
4438.512535
4419.937161
4436.391045
4395.143181
4457.714402
4435.990239
4404.721833
4439.077980
4414.095186
4493.680805
4456.159319
4437.560421
4446.152737
4426.694432
4450.232034
4421.765256
4441.265801
4434.695822
4423.276390
4430.932024
4422.332419
4417.050436
4414.356498
4428.926058
4426.716479
4435.585951
4440.318433
4431.225626
4435.733493
4411.261191
4422.432668
4452.184553
4404.453536
4427.920102
4448.037045
4419.795828
4424.757602
4437.905866
4447.018901
4379.296643
4448.598124
4391.088811
4364.673509
4433.674097
4436.347860
4431.405858
4395.357112
4476.511046
4379.761846
4422.630320
4426.461545
4460.989002
4364.929921
4418.664017
4431.753275
4429.915060
4431.494282
4414.076573
4437.349845
4423.579086
4438.817354
4442.679318
4388.763854
4450.841968
4426.765724
4423.879384
4416.817715
4448.503796
4408.880085
4453.874322
4412.350119
4387.036645
4479.307196
4470.640397
4449.743294
4401.121080
4403.409964
4436.250859
4447.426221
4429.679610
4372.398058
4461.299656
4428.105318
4450.732531
4423.537381
4438.252980
4433.234534
4431.179629
4433.882093
4429.138462
4431.047960
4401.382919
4417.758914
4433.874124
4442.760609
4392.367084
4449.722360
4428.955938
4441.315984
4408.817805
4428.069079
4440.893522
4461.504300
4345.048860
4473.371995
4457.225236
4433.703773
4497.301978
4431.350180
4451.959940
4460.581329
4446.623545
4429.099545
4393.387666
4406.370248
4437.101009
4436.013316
4424.037262
4420.632390
4425.611469
4414.842272
4445.075876
4407.241503
4451.423379
4405.121110
4414.351028
4422.134660
4443.182200
4401.428612
4434.369960
4402.588837
4439.646632
4386.098552
4440.616638
4313.460124
4502.683188
4491.069504
4426.145648
4406.808117
4524.878422
4377.816471
4440.905758
4389.669257
4468.389662
4358.408986
4427.122875
4440.247147
4429.110658
4436.827949
4436.441594
4429.126496
4434.357174
4427.387837
4433.056830
4409.606322
4426.584216
4436.494201
4420.178678
4407.091235
4418.717505
4444.535658
4409.590680
4464.222752
4377.953739
4470.718511
4460.278974
4507.764478
4424.203221
4419.248547
4361.660595
4423.001576
4417.179547
4429.910449
4454.307149
4466.613527
4440.699037
4379.590321
4453.268359
4424.456603
4427.597751
4428.662234
4417.990955
4426.771962
4415.319641
4432.646449
4428.692168
4419.738235
4416.290676
4424.556795
4441.615646
4413.617319
4433.183908
4420.260689
4425.499746
4432.097465
4445.214549
4443.797974
4493.837255
4628.406436
4406.180464
4522.543129
4414.507885
4418.946877
4470.051110
4388.663466
4419.371258
4449.159271
4435.156487
4414.083032
4427.579960
4424.998296
4429.656872
4440.449116
4426.356716
4418.291238
4435.152278
4437.865798
4428.460363
4456.584141
4426.987968
4417.701067
4423.324655
4433.361565
4409.824021
4435.001836
4425.750259
4406.864920
4410.443976
4427.804762
4391.982910
4417.908895
4427.208275
4410.381184
4428.432133
4460.818801
4364.753483
4369.877345
4495.970016
4463.546135
4411.523603
4421.355586
4433.894412
4417.954922
4414.702754
4440.464482
4443.798891
4402.760931
4439.141137
4421.693295
4410.429879
4418.381008
4428.017357
4429.050022
4436.267650
4424.158104
4444.186505
4385.642554
4440.591304
4460.283560
4456.075928
4426.729744
4476.833316
4416.042144
4419.640685
4422.480551
4459.502453
4477.397677
4436.773800
4375.402999
4420.258608
4396.670612
4427.119722
4432.667545
4420.119885
4448.772081
4426.993154
4404.646505
4416.927407
4449.668557
4404.320592
4446.594839
4438.165588
4421.065248
4427.410540
4410.134674
4440.037998
4423.564696
4448.502752
4365.659666
4442.476682
4480.573013
4417.456930
4452.520015
4437.808912
4422.130466
4470.293459
4456.552862
4418.666751
4530.649614
4370.523664
4454.555563
4419.291848
4427.129268
4431.632849
4420.215382
4431.203237
4419.216362
4447.979500
4422.251690
4423.074222
4446.245620
4435.530779
4389.517559
4392.958730
4428.572829
4425.448739
4415.806433
4425.811114
4394.529487
4422.738021
4422.716604
4457.165913
4428.356452
4403.152321
4444.120951
4442.151393
4472.619418
4432.674671
4467.071453
4416.242140
4356.364190
4391.181581
4420.359550
4420.943055
4428.022821
4433.311958
4416.748450
4435.488419
4415.115648
4416.710259
4430.038796
4433.578817
4411.277597
4414.494702
4460.501612
4417.561037
4423.536101
4423.507829
4429.179404
4461.590310
4400.663567
4418.295495
4444.402736
4415.004973
4423.065636
4470.242949
4374.504717
4372.537488
4487.767116
4419.068000
4392.709915
4458.718578
4464.382140
4415.644529
4429.662835
4420.101283
4427.392545
4424.593249
4438.102040
4421.738102
4424.905428
4409.466786
4418.024459
4437.420316
4413.364242
4429.476727
4421.652945
4440.061945
4397.810401
4452.892027
4383.855611
4433.662524
4364.632634
4429.709995
4425.893464
4464.379728
4383.361332
4461.963991
4434.298317
4445.947905
4392.267440
4388.811586
4469.609180
4355.968420
4418.523672
4424.965298
4422.317180
4434.395449
4430.326015
4408.482797
4453.136038
4428.395960
4443.237200
4420.203512
4427.932413
4414.913944
4415.987438
4445.612697
4409.295755
4432.711076
4411.039371
4403.039510
4446.881842
4440.539350
4470.573241
4434.773579
4403.109124
4449.154908
4416.669569
4486.876456
4461.706407
4460.191262
4472.244099
4456.828895
4411.987739
4414.256274
4424.801271
4430.792262
4421.547805
4423.215049
4439.617681
4403.102497
4425.980186
4444.475681
4410.219571
4427.938599
4427.176199
4447.595423
4389.180775
4435.542251
4435.340606
4395.312160
4411.743422
4412.114900
4390.840010
4466.855495
4450.534646
4434.327357
4336.299131
4453.332397
4417.842934
4387.473750
4455.779022
4407.911671
4454.129635
4429.419570
4404.704985
4422.242436
4425.078815
4430.399155
4413.683533
4439.748943
4426.631672
4419.685000
4414.776750
4407.845081
4447.371803
4425.599569
4427.433603
4443.594993
4435.150667
4464.634506
4446.850468
4398.123131
4446.162859
4412.061559
4442.625807
4416.648893
4399.458458
4430.937878
4422.729484
4446.485973
4436.449345
4427.127574
4395.260399
4442.467099
4382.315999
4462.074602
4424.234765
4430.452796
4435.528209
4428.624744
4403.651473
4451.280415
4439.223645
4437.455934
4419.397159
4439.079437
4430.769036
4428.895677
4394.236790
4419.138638
4415.813902
4449.467723
4426.456924
4485.894342
4409.587276
4345.929283
4405.697164
4467.550858
4452.874442
4410.587403
4459.623076
4445.221423
4456.460553
4362.393272
4430.133311
4416.083483
4362.185287
4437.901451
4432.962689
4408.986862
4427.588383
4437.056137
4415.479450
4410.282213
4425.897293
4424.692215
4421.165406
4413.725897
4439.282179
4443.488830
4448.392641
4414.990903
4415.734456
4471.843040
4406.508854
4380.953905
4547.467174
4384.477867
4423.667716
4517.163214
4432.755942
4444.495714
4420.879834
4447.939588
4459.539174
4476.992521
4395.550342
4431.346201
4427.216196
4428.859269
4440.876214
4438.023716
4401.694384
4424.237450
4423.782785
4416.337683
4418.485695
4432.568951
4421.843214
4408.598493
4399.364470
4443.106196
4427.390615
4422.720815
4479.192238
4459.057315
4384.018435
4436.664343
4491.914318
4495.042675
4449.435422
4427.311863
4480.504788
4442.892581
4398.512747
4445.609398
4469.410169
4434.536876
4481.452793
4427.573505
4435.894086
4424.406728
4426.294448
4431.015586
4437.532019
4435.294511
4414.430471
4409.995209
4423.927407
4446.305255
4432.413785
4438.419807
4428.094276
4414.372359
4449.327864
4402.694110
4399.869087
4439.515313
4442.618042
4694.746628
4515.708731
4458.643076
4493.431141
4471.829292
4454.806615
4434.678249
4385.363526
4366.544997
4343.130545
4375.035849
4430.988511
4443.116997
4405.311917
4430.504014
4435.873778
4409.962868
4441.223841
4429.844686
4434.111861
4431.342566
4420.600063
4418.352487
4427.939976
4420.039675
4430.248398
4421.456335
4412.187144
4431.033837
4448.348101
4402.529623
4449.447707
4419.969639
4452.281801
4426.357932
4464.175902
4439.839758
4429.225799
4428.719170
4475.269454
4426.291667
4448.262079
4428.158403
4415.904622
4439.715778
4427.544382
4405.543763
4440.461285
4413.666597
4399.000577
4416.251307
4440.450096
4421.845546
4453.646736
4419.031223
4423.519305
4433.370135
4430.438213
4434.018992
4431.245567
4406.664893
4409.851023
4384.936678
4485.443631
4445.306031
4454.731940
4390.337947
4422.537340
4437.563331
4396.494703
4455.309802
4396.415970
4418.263968
4435.950518
4423.454669
4428.684824
4449.985158
4442.096341
4400.966248
4440.902883
4418.018928
4432.264483
4407.899089
4421.491868
4430.017068
4415.415035
4439.130012
4417.317652
4439.629463
4444.893273
4454.350634
4486.911448
4379.736459
4427.732760
4392.603409
4481.190618
4385.314791
4431.772992
4468.188149
4398.830065
4451.955121
4423.418667
4426.228802
4381.890646
4420.288315
4434.418730
4413.040626
4391.928454
4431.817480
4433.710635
4458.289626
4447.786638
4399.061862
4437.039984
4432.877242
4415.515101
4426.020038
4421.905207
4403.691038
4406.344908
4418.862556
4457.510681