# vtk DataFile Version 2.0
mfree iwf
ASCII

DATASET UNSTRUCTURED_GRID
POINTS 6231 float
0.000000 0.000300 0.000000
0.000000 0.000310 0.000000
0.000000 0.000320 0.000000
0.000000 0.000330 0.000000
0.000000 0.000340 0.000000
0.000000 0.000350 0.000000
0.000001 0.000360 0.000000
0.000001 0.000370 0.000000
0.000001 0.000380 0.000000
0.000001 0.000390 0.000000
0.000001 0.000400 0.000000
0.000001 0.000410 0.000000
0.000001 0.000420 0.000000
0.000001 0.000430 0.000000
0.000001 0.000440 0.000000
0.000002 0.000450 0.000000
0.000002 0.000460 0.000000
0.000002 0.000471 0.000000
0.000002 0.000480 0.000000
0.000002 0.000492 0.000000
0.000006 0.000501 0.000000
0.000560 0.000827 0.000000
0.000618 0.000882 0.000000
0.000573 0.000839 0.000000
0.000630 0.000891 0.000000
0.000649 0.000902 0.000000
0.000696 0.000919 0.000000
0.000703 0.000920 0.000000
0.000716 0.000918 0.000000
0.000730 0.000919 0.000000
0.000762 0.000927 0.000000
0.000010 0.000300 0.000000
0.000010 0.000310 0.000000
0.000010 0.000320 0.000000
0.000010 0.000330 0.000000
0.000010 0.000340 0.000000
0.000010 0.000350 0.000000
0.000011 0.000360 0.000000
0.000011 0.000370 0.000000
0.000011 0.000380 0.000000
0.000011 0.000390 0.000000
0.000011 0.000400 0.000000
0.000011 0.000410 0.000000
0.000011 0.000420 0.000000
0.000011 0.000430 0.000000
0.000011 0.000440 0.000000
0.000012 0.000451 0.000000
0.000012 0.000460 0.000000
0.000012 0.000472 0.000000
0.000013 0.000478 0.000000
0.000009 0.000492 0.000000
0.000013 0.000498 0.000000
0.000668 0.000904 0.000000
0.000682 0.000909 0.000000
0.000690 0.000911 0.000000
0.000697 0.000911 0.000000
0.000714 0.000910 0.000000
0.000725 0.000911 0.000000
0.000740 0.000911 0.000000
0.000750 0.000915 0.000000
0.000756 0.000915 0.000000
0.000758 0.000922 0.000000
0.000020 0.000300 0.000000
0.000020 0.000310 0.000000
0.000020 0.000320 0.000000
0.000020 0.000330 0.000000
0.000021 0.000340 0.000000
0.000020 0.000351 0.000000
0.000021 0.000360 0.000000
0.000021 0.000370 0.000000
0.000020 0.000380 0.000000
0.000021 0.000390 0.000000
0.000021 0.000400 0.000000
0.000022 0.000410 0.000000
0.000021 0.000420 0.000000
0.000022 0.000431 0.000000
0.000020 0.000440 0.000000
0.000024 0.000451 0.000000
0.000021 0.000460 0.000000
0.000022 0.000470 0.000000
0.000021 0.000481 0.000000
0.000024 0.000494 0.000000
0.000020 0.000497 0.000000
0.000640 0.000884 0.000000
0.000666 0.000898 0.000000
0.000675 0.000903 0.000000
0.000681 0.000902 0.000000
0.000692 0.000898 0.000000
0.000706 0.000905 0.000000
0.000733 0.000906 0.000000
0.000747 0.000909 0.000000
0.000757 0.000903 0.000000
0.000765 0.000903 0.000000
0.000030 0.000300 0.000000
0.000030 0.000310 0.000000
0.000030 0.000320 0.000000
0.000031 0.000330 0.000000
0.000030 0.000340 0.000000
0.000030 0.000349 0.000000
0.000031 0.000359 0.000000
0.000030 0.000370 0.000000
0.000031 0.000380 0.000000
0.000031 0.000390 0.000000
0.000031 0.000400 0.000000
0.000031 0.000411 0.000000
0.000031 0.000420 0.000000
0.000031 0.000430 0.000000
0.000032 0.000440 0.000000
0.000030 0.000450 0.000000
0.000032 0.000459 0.000000
0.000036 0.000473 0.000000
0.000030 0.000478 0.000000
0.000033 0.000488 0.000000
0.000032 0.000497 0.000000
0.000063 0.000500 0.000000
0.000661 0.000892 0.000000
0.000678 0.000888 0.000000
0.000704 0.000896 0.000000
0.000714 0.000892 0.000000
0.000717 0.000902 0.000000
0.000725 0.000897 0.000000
0.000735 0.000897 0.000000
0.000743 0.000898 0.000000
0.000766 0.000895 0.000000
0.000040 0.000300 0.000000
0.000040 0.000310 0.000000
0.000040 0.000320 0.000000
0.000040 0.000329 0.000000
0.000040 0.000340 0.000000
0.000041 0.000351 0.000000
0.000040 0.000361 0.000000
0.000041 0.000370 0.000000
0.000041 0.000380 0.000000
0.000040 0.000390 0.000000
0.000042 0.000399 0.000000
0.000040 0.000410 0.000000
0.000043 0.000420 0.000000
0.000040 0.000431 0.000000
0.000043 0.000439 0.000000
0.000043 0.000450 0.000000
0.000043 0.000460 0.000000
0.000036 0.000469 0.000000
0.000045 0.000477 0.000000
0.000043 0.000496 0.000000
0.000040 0.000498 0.000000
0.000507 0.000659 0.000000
0.000670 0.000884 0.000000
0.000688 0.000888 0.000000
0.000696 0.000886 0.000000
0.000702 0.000892 0.000000
0.000723 0.000886 0.000000
0.000747 0.000889 0.000000
0.000749 0.000879 0.000000
0.000756 0.000894 0.000000
0.000766 0.000885 0.000000
0.000050 0.000300 0.000000
0.000050 0.000310 0.000000
0.000050 0.000320 0.000000
0.000049 0.000331 0.000000
0.000052 0.000340 0.000000
0.000050 0.000348 0.000000
0.000051 0.000359 0.000000
0.000050 0.000370 0.000000
0.000052 0.000380 0.000000
0.000050 0.000390 0.000000
0.000052 0.000400 0.000000
0.000049 0.000411 0.000000
0.000053 0.000419 0.000000
0.000051 0.000430 0.000000
0.000054 0.000440 0.000000
0.000047 0.000451 0.000000
0.000054 0.000458 0.000000
0.000053 0.000470 0.000000
0.000056 0.000483 0.000000
0.000049 0.000488 0.000000
0.000050 0.000498 0.000000
0.000655 0.000897 0.000000
0.000616 0.000873 0.000000
0.000683 0.000881 0.000000
0.000701 0.000875 0.000000
0.000715 0.000881 0.000000
0.000731 0.000886 0.000000
0.000724 0.000875 0.000000
0.000739 0.000883 0.000000
0.000756 0.000882 0.000000
0.000765 0.000874 0.000000
0.000060 0.000300 0.000000
0.000060 0.000310 0.000000
0.000060 0.000321 0.000000
0.000060 0.000329 0.000000
0.000061 0.000340 0.000000
0.000059 0.000351 0.000000
0.000062 0.000361 0.000000
0.000059 0.000370 0.000000
0.000063 0.000381 0.000000
0.000059 0.000390 0.000000
0.000063 0.000400 0.000000
0.000060 0.000409 0.000000
0.000063 0.000419 0.000000
0.000058 0.000431 0.000000
0.000065 0.000439 0.000000
0.000060 0.000449 0.000000
0.000065 0.000460 0.000000
0.000055 0.000472 0.000000
0.000064 0.000475 0.000000
0.000068 0.000486 0.000000
0.000058 0.000496 0.000000
0.000646 0.000893 0.000000
0.000661 0.000883 0.000000
0.000680 0.000870 0.000000
0.000692 0.000874 0.000000
0.000710 0.000868 0.000000
0.000717 0.000865 0.000000
0.000746 0.000868 0.000000
0.000735 0.000872 0.000000
0.000755 0.000870 0.000000
0.000764 0.000865 0.000000
0.000070 0.000300 0.000000
0.000070 0.000310 0.000000
0.000070 0.000319 0.000000
0.000070 0.000331 0.000000
0.000071 0.000340 0.000000
0.000070 0.000350 0.000000
0.000072 0.000357 0.000000
0.000068 0.000372 0.000000
0.000074 0.000377 0.000000
0.000070 0.000390 0.000000
0.000073 0.000400 0.000000
0.000068 0.000412 0.000000
0.000074 0.000421 0.000000
0.000069 0.000429 0.000000
0.000074 0.000439 0.000000
0.000066 0.000452 0.000000
0.000077 0.000459 0.000000
0.000073 0.000470 0.000000
0.000076 0.000486 0.000000
0.000068 0.000496 0.000000
0.000076 0.000496 0.000000
0.000506 0.000635 0.000000
0.000650 0.000880 0.000000
0.000673 0.000876 0.000000
0.000697 0.000860 0.000000
0.000710 0.000877 0.000000
0.000727 0.000863 0.000000
0.000736 0.000868 0.000000
0.000735 0.000855 0.000000
0.000753 0.000860 0.000000
0.000764 0.000855 0.000000
0.000080 0.000300 0.000000
0.000080 0.000310 0.000000
0.000080 0.000321 0.000000
0.000080 0.000330 0.000000
0.000080 0.000341 0.000000
0.000082 0.000352 0.000000
0.000078 0.000363 0.000000
0.000082 0.000370 0.000000
0.000080 0.000383 0.000000
0.000078 0.000391 0.000000
0.000087 0.000396 0.000000
0.000080 0.000408 0.000000
0.000084 0.000418 0.000000
0.000079 0.000430 0.000000
0.000087 0.000445 0.000000
0.000077 0.000447 0.000000
0.000086 0.000463 0.000000
0.000074 0.000470 0.000000
0.000087 0.000473 0.000000
0.000085 0.000482 0.000000
0.000084 0.000495 0.000000
0.000636 0.000889 0.000000
0.000610 0.000876 0.000000
0.000682 0.000860 0.000000
0.000692 0.000868 0.000000
0.000706 0.000859 0.000000
0.000715 0.000854 0.000000
0.000723 0.000853 0.000000
0.000744 0.000855 0.000000
0.000753 0.000850 0.000000
0.000762 0.000845 0.000000
0.000090 0.000300 0.000000
0.000090 0.000310 0.000000
0.000090 0.000320 0.000000
0.000090 0.000329 0.000000
0.000091 0.000340 0.000000
0.000090 0.000348 0.000000
0.000091 0.000359 0.000000
0.000090 0.000368 0.000000
0.000090 0.000379 0.000000
0.000092 0.000388 0.000000
0.000085 0.000406 0.000000
0.000094 0.000408 0.000000
0.000089 0.000425 0.000000
0.000096 0.000426 0.000000
0.000088 0.000436 0.000000
0.000097 0.000455 0.000000
0.000086 0.000454 0.000000
0.000097 0.000471 0.000000
0.000106 0.000480 0.000000
0.000089 0.000495 0.000000
0.000094 0.000495 0.000000
0.000509 0.000677 0.000000
0.000645 0.000874 0.000000
0.000632 0.000877 0.000000
0.000664 0.000873 0.000000
0.000697 0.000849 0.000000
0.000719 0.000845 0.000000
0.000733 0.000848 0.000000
0.000741 0.000843 0.000000
0.000752 0.000840 0.000000
0.000761 0.000835 0.000000
0.000100 0.000300 0.000000
0.000100 0.000310 0.000000
0.000100 0.000320 0.000000
0.000100 0.000331 0.000000
0.000101 0.000340 0.000000
0.000099 0.000351 0.000000
0.000102 0.000361 0.000000
0.000099 0.000372 0.000000
0.000102 0.000381 0.000000
0.000099 0.000391 0.000000
0.000101 0.000399 0.000000
0.000103 0.000409 0.000000
0.000100 0.000418 0.000000
0.000100 0.000436 0.000000
0.000110 0.000443 0.000000
0.000097 0.000445 0.000000
0.000108 0.000460 0.000000
0.000098 0.000467 0.000000
0.000095 0.000481 0.000000
0.000106 0.000491 0.000000
0.000101 0.000494 0.000000
0.000577 0.000844 0.000000
0.000584 0.000851 0.000000
0.000605 0.000871 0.000000
0.000690 0.000853 0.000000
0.000706 0.000847 0.000000
0.000712 0.000838 0.000000
0.000733 0.000838 0.000000
0.000725 0.000832 0.000000
0.000748 0.000833 0.000000
0.000759 0.000826 0.000000
0.000110 0.000300 0.000000
0.000110 0.000310 0.000000
0.000110 0.000320 0.000000
0.000110 0.000329 0.000000
0.000110 0.000339 0.000000
0.000111 0.000350 0.000000
0.000109 0.000358 0.000000
0.000112 0.000369 0.000000
0.000110 0.000378 0.000000
0.000111 0.000389 0.000000
0.000111 0.000400 0.000000
0.000110 0.000413 0.000000
0.000115 0.000422 0.000000
0.000107 0.000427 0.000000
0.000112 0.000433 0.000000
0.000106 0.000449 0.000000
0.000115 0.000461 0.000000
0.000111 0.000471 0.000000
0.000116 0.000480 0.000000
0.000111 0.000493 0.000000
0.000119 0.000492 0.000000
0.000538 0.000785 0.000000
0.000512 0.000699 0.000000
0.000640 0.000868 0.000000
0.000665 0.000862 0.000000
0.000655 0.000856 0.000000
[...]
POINT_DATA 6231
SCALARS density float 1
LOOKUP_TABLE default
4409.632610
4424.443292
4420.836323
4423.048179
4427.503773
4427.191519
4421.987806
4422.839716
4428.723554
4428.939101
4426.674456
4430.666783
4426.666765
4430.088070
4431.944423
4441.303303
4423.725957
4431.128402
4412.724907
4424.080625
4411.248139
4424.063201
4424.804610
4431.625329
4440.637506
4417.777857
4401.780385
4434.155988
4449.891222
4452.334584
4420.399457
4412.615376
4420.456404
4428.656226
4425.798283
4422.289624
4423.131465
4426.759861
4431.188592
4426.675636
4430.033661
4423.184869
4434.181550
4425.689256
4437.479545
4416.718887
4424.444824
4409.668432
4446.410764
4460.873180
4460.056652
4416.474042
4408.058349
4407.657383
4429.487268
4503.048329
4394.621983
4402.374441
4425.144675
4412.185561
4462.234662
4450.005131
4416.651121
4430.422870
4425.481230
4419.002465
4430.209238
4425.461626
4425.322746
4435.054790
4413.096358
4434.200390
4426.474625
4431.076416
4419.935377
4438.328186
4412.216207
4481.640502
4399.455451
4451.760822
4352.110564
4449.320325
4420.856662
4421.489496
4429.063469
4412.114651
4523.408238
4330.843531
4364.050570
4423.615839
4413.761168
4411.601578
4401.358230
4425.637517
4429.397903
4418.482399
4433.836065
4435.214727
4432.420826
4424.989627
4421.859951
4431.240769
4436.877074
4411.616976
4440.106236
4414.168419
4448.717102
4400.702533
4434.708855
4385.362875
4458.692891
4368.659968
4556.329721
4370.276613
4430.213946
4456.523012
4422.089447
4489.374927
4346.385513
4491.571686
4462.278985
4395.205233
4493.917048
4448.877824
4431.346877
4424.857337
4433.537659
4441.119733
4411.101347
4428.643695
4434.514556
4434.449067
4425.960349
4426.513398
4413.328848
4454.052041
4404.957239
4444.460487
4415.048352
4446.445873
4390.316237
4509.792203
4308.685856
4419.799063
4383.607058
4433.440401
4422.772410
4414.861536
4432.734046
4473.407662
4438.155637
4399.359318
4491.241449
4428.112355
4419.814250
4424.782200
4424.451843
4429.988702
4418.193958
4443.111307
4453.503999
4407.247404
4434.770559
4411.405816
4444.644389
4428.521974
4423.759779
4416.881625
4454.008052
4374.335879
4481.734151
4361.412258
4474.907094
4359.911026
4535.984031
4382.795607
4446.560455
4426.978399
4452.262975
4405.581733
4439.521882
4437.332327
4390.988859
4387.216302
4410.667169
4415.707271
4424.336374
4442.999322
4426.787941
4437.992841
4421.006316
4418.677249
4429.328687
4447.824638
4415.660902
4436.999758
4418.090520
4445.205452
4422.893309
4425.998536
4422.356833
4463.588716
4407.297834
4517.700543
4377.036096
4483.555393
4432.076461
4417.720197
4392.128593
4410.533665
4465.566051
4465.043792
4428.350872
4398.474516
4432.295057
4422.935345
4427.769507
4430.656629
4430.150786
4404.467362
4444.740011
4421.556237
4445.272293
4444.224567
4420.481847
4421.374498
4448.203751
4391.535866
4423.070087
4410.202296
4442.882292
4432.326808
4451.490335
4439.258170
4450.893822
4447.581069
4411.599462
4389.312367
4561.818972
4453.794555
4444.319396
4453.965015
4424.759182
4420.403074
4468.850732
4433.689237
4452.674223
4412.863272
4423.882004
4429.227785
4436.183106
4421.003257
4410.906858
4421.432171
4404.971590
4440.071636
4438.345798
4430.053809
4409.418122
4445.364860
4405.131495
4440.555874
4472.496747
4392.973086
4458.111685
4449.961800
4361.492205
4465.625931
4414.379548
4432.205181
4414.799210
4422.750251
4436.211216
4382.860631
4452.710121
4431.206585
4404.197963
4436.988470
4434.763414
4426.988481
4424.599040
4433.967851
4414.178115
4437.018787
4448.106239
4408.922484
4456.418143
4403.609990
4438.381941
4457.893778
4392.045266
4431.658216
4463.471389
4414.798044
4382.722168
4434.838711
4435.714194
4429.493063
4425.935876
4415.280347
4420.232883
4436.693993
4425.434458
4472.186583
4416.048190
4385.867223
4446.282297
4446.046591
4428.940150
4418.503306
4430.030361
4427.026946
4424.843746
4439.256359
4416.354960
4416.211062
4436.939015
4404.035786
4441.206104
4435.420683
4427.887726
4451.492983
4419.158857
4382.802032
4451.060477
4447.506866
4419.132840
4463.398583
4412.488700
4437.845257
4418.318019
4424.957719
4432.943973
4421.717392
4425.674429
4468.772121
4383.900144
4393.327558
4471.373960
4443.597545
4423.361080
4425.417849
4440.172309
4428.791625
4429.126674
4431.877854
4425.735372
4443.923553
4427.048221
4443.267686
4413.490071
4416.133542
4453.241817
4389.341976
4445.785508
4430.766348
4432.564895
4464.392600
4391.469823
4458.809538
4401.970310
4411.396267
4428.640947
4432.876197
4431.467999
4398.176845
4426.208750
4462.830872
4461.062719
4415.787984
4423.731398
4451.769549
4432.707565
4427.522388
4421.481558
4425.130859
4432.298441
4425.857347
4402.581415
4445.429149
4401.931358
4451.688546
4443.775559
4402.396503
4444.856863
4426.426594
4438.289408
4368.879944
4440.025749
4389.320472
4431.737915
4432.772164
4392.154531
4441.828831
4415.745630
4427.419226
4451.803539
4449.287975
4397.218097
4334.109102
4463.830038
4387.384531
4415.184025
4436.921707
4432.964110
4435.022118
4445.541149
4413.071997
4433.990637
4433.245603
4430.431108
4428.520323
4408.757334
4413.228219
4416.925114
4448.847511
4429.480604
4406.990723
4444.270274
4397.442615
4458.843194
4495.161003
4418.028037
4433.839243
4432.738116
4410.878668
4416.017542
4423.244714
4432.152690
4425.204895
4481.404250
4479.507868
4482.640657
4451.663560
4434.678688
4436.255808
4426.134520
4412.639541
4439.021144
4421.223884
4427.271587
4406.114049
4454.500545
4417.541247
4435.502749
4449.906476
4409.166524
4427.706007
4431.103253
4389.363767
4416.005986
4506.870167
4568.669735
4385.246013
4375.297436
4420.224362
4418.113816
4458.154400
4464.743094
4392.029388
4447.177440
4410.291609
4406.675895
4406.177079
4448.186531
4434.408499
4433.031082
4436.340804
4439.326887
4432.157835
4412.548699
4433.404526
4449.765009
4411.362718
4414.309127
4437.060903
4420.084711
4449.293769
4426.522619
4449.521300
4411.783829
4494.186501
4356.215735
4330.505434
4480.043117
4394.574377
4412.320742
4436.853176
4422.838612
4491.675826
4442.928559
4413.127255
4432.889671
4396.708910
4421.994622
4411.552652
4433.926416
4426.060986
4430.978992
4414.129630
4438.490384
4430.490616
4416.260770
4420.563986
4442.891802
4438.595995
4425.841792
4412.410074
4440.914398
4386.084600
4431.348413
4441.244883
4393.725629
4482.543207
4479.833176
4420.162237
4406.432466
4424.279070
4446.499732
4416.293045
4370.638250
4453.858466
4449.053829
4414.832148
4399.367115
4435.553183
4428.630590
4434.235579
4431.132890
4439.157652
4436.917414
4435.215874
4422.453573
4437.642875
4433.892404
4414.238410
4409.693790
4448.631942
4426.164849
4418.551462
4461.303840
4414.039674
4444.444735
4376.849331
4489.902429
4350.814886
4369.117578
4424.174911
4428.040359
4438.384768
4439.727388
4395.180446
4439.220145
4412.496422
4445.303724
4463.446950
4425.485782
4433.779208
4435.735174
4427.491450
4421.586697
4431.544019
4431.945222
4431.523774
4427.943037
4416.443256
4439.968219
4450.268682
4413.023523
4429.910527
4425.878919
4423.362286
4390.418200
4461.922250
4357.698152
4460.296069
4404.139797
4444.885069
4385.722415
4430.142910
4428.647729
4444.947567
4458.236533
4408.213020
4464.537309
4456.893295
4410.951334
4426.663767
4421.589042
4430.756946
4421.813576
4441.547024
4435.562071
4427.621519
4436.947940
4427.511761
4441.137965
4404.446019
4415.033795
4423.907721
4454.056859
4403.768999
4442.782231
4431.349680
4456.594580
4386.372760
4452.680899
4435.076228
4585.398002
4368.925346
4481.265717
4438.451940
4436.633146
4437.936506
4395.658531
4455.616026
4405.394681
4423.304582
4441.980075
4402.985825
4429.508732
4431.975821
4429.621677
4412.904182
4436.643804
4424.939831
4423.112916
4427.279297
4428.241532
4443.479977
4418.756706
4412.444166
4425.143750
4414.364150
4403.364444
4466.214682
4456.365152
4473.402917
4360.198134
4378.478761
4523.898994
4407.732552
4427.939257
4451.892644
4437.367539
4379.317754
4421.361094
4442.904463
4459.776760
4408.318333
4392.909855
4430.184336
4434.089611
4426.422753
4436.796430
4441.721568
4418.374333
4431.438358
4418.229518
4417.707504
4423.633664
4421.746188
4425.776399
4461.291260
4436.554733
4418.341075
4438.424164
4423.822999
4445.801216
4395.257464
4460.709111
4409.705365
4444.998988
4411.330936
4421.028102
4433.710033
4424.780311
4403.278040
4456.944298
4351.551146
4402.469079
4452.530680
4430.486006
4428.228339
4428.937395
4429.229547
4408.658429
4434.233486
4417.450114
4441.647521
4431.729425
4426.973150
4426.025162
4392.367631
4461.639447
4396.307100
4397.557367
4452.161787
4378.227692
4397.228669
4439.431651
4445.819293
4420.158278
4423.893752
4440.536089
4433.392354
4411.987556
4438.693257
4485.716096
4375.319414
4504.418185
4345.990467
4446.079881
4431.341281
4430.111130
4431.791321
4430.813333
4432.500001
4448.100239
4406.212787
4413.206305
4395.956097
4442.381603
4408.493246
4439.756065
4450.835775
4447.008691
4442.260442
4420.063150
4446.304849
4424.883794
4397.854986
4445.916577
4422.147797
4422.575816
4466.888108
4396.847208
4437.530805
4469.715821
4434.586627
4371.922773
4455.794048
4443.138325
4451.032815
4428.794394
4427.427272
4427.518747
4423.097512
4416.683695
4414.100746
4440.085895
4439.752765
4424.891126
4433.728531
4405.138006
4435.447613
4399.156220
4415.618728
4398.473451
4406.140254
4406.714676
4457.156767
4440.510536
4493.150593
4404.902180
4414.699773
4445.843624
4393.890166
4436.090877
4444.771991
4449.982183
4449.451179
4449.912936
4429.328056
4455.894497
4429.851895
4429.643685
4428.682901
4434.066037
4433.317373
4438.671494
4406.543324
4401.532561
4424.021616
4427.821330
4432.480466
4441.918780
4436.571641
4431.425601
4436.639947
4463.738321
4389.333086
4466.568781
4361.393493
4410.986072
4432.372897
4407.396690
4448.455247
4436.418688
4413.644803
4399.517599
4433.080175
4425.677656
4407.869611
4413.743720
4415.334220
4422.805105
4434.556925
4423.280626
4421.826899
4408.022578
4427.901880
4426.954944
4439.458800
4440.608562
4401.106073
4423.568655
4414.888576
4421.934517
4426.532803
4416.283860
4426.726429
4424.500010
4466.768217
4404.280998
4448.971294
4424.712144
4518.217068
4411.621429
4366.436068
4452.651784
4455.105116
4422.243452
4428.113564
4497.659280
4403.467866
4445.959875
4427.830250
4436.968881
4420.151311
4437.238009
4446.533323
4422.029044
4434.545597
4404.501385
4409.440724
4445.371984
4425.413112
4439.743447
4408.182108
4447.846727
4392.421980
4465.127704
4391.613843
4474.032793
4402.576703
4428.198412
4418.891561
4420.463798
4422.302233
4431.701791
4455.013393
4410.634132
4431.802225
4434.566215
4419.266756
4386.161612
4433.775201
4429.265176
4427.621015
4426.784449
4422.376524
4417.303376
4435.831327
4422.098943
4443.376663
4431.239821
4419.908524
4393.347398
4449.830849
4419.427228
4450.456486
4433.372314
4421.594858
4400.360354
4449.451316
4433.048236
4431.200708
4406.176836
4407.635177
4418.968889
4421.857228
4479.353457
4387.634197
4432.061393
4429.076258
4370.295466
4433.761172
4409.308557
4425.818542
4425.111823
4435.859974
4437.282529
4433.977621
4439.482440
4405.783470
4440.421205
4395.167460
4434.771659
4456.303049
4409.553414
4433.191256
4396.138171
4450.346208
4425.407012
4414.534724
4355.730850
4382.579649
4465.181369
4437.734930
4405.312647
4398.749168
4399.302943
4464.612352
4401.357734
4406.885079
4458.090507
4446.463790
4429.451292
4456.529373
4435.462341
4435.248587
4419.378936
4423.194485
4418.278534
4428.708516
4437.473880
4416.039599
4439.999231
4413.945691
4407.617389
4425.053655
4441.462230
4424.754908
4435.137369
4427.383870
4419.525009
4483.519928
4462.223124
4436.603426
4445.167920
4517.720023
4422.481178
4417.221821
4445.195084
4439.521217
4406.094376
4435.104590
4417.094825
4420.269526
4413.818998
4426.059100
4429.407086
4433.309814
4444.362935
4438.456057
4424.381280
4438.171650
4407.061856
4445.904303
4428.204698
4426.316299
4421.983025
4420.246531
4422.533083
4419.183804
4437.217363
4395.949694
4441.082231
4387.107538
4380.093943
4431.684355
4433.888734
4458.620995
4474.201845
4479.008059
4414.336779
4419.799820
4420.612220
4475.734006
4350.036391
4420.133171
4430.656522
4429.040483
4433.522944
4404.142057
4437.070757
4436.844866
4408.594328
4447.271716
4399.433649
4414.943298
4457.378316
4416.173766
4430.146113
4446.461330
4426.936024
4437.919643
4417.355696
4380.742487
4467.630865
4463.636431
4447.638050
4400.631290
4413.345620
4455.371200
4379.314252
4426.610947
4381.969747
4471.662129
4428.410420
4453.283609
4422.714423
4441.408467
4430.102342
4428.703019
4442.588504
4437.937375
4416.415716
4413.413699
4427.810925
4424.356446
4450.188688
4385.545217
4456.958991
4412.129420
4421.532260
4385.323770
4432.980369
4452.238777
4464.686568
4345.967119
4470.228885
4459.139033
4458.493456
4480.879930
4431.972083
4471.272842
4416.049024
4444.111760
4449.553732
4395.386943
4397.738481
4438.313796
4432.024959
4427.444245
4422.094424
4417.603384
4415.926027
4448.968392
4393.535516
4431.149981
4393.715754
4446.946486
4401.923243
4448.283868
4391.728145
4460.917541
4424.111223
4426.134046
4384.058227
4447.579269
4310.256534
4498.403280
4542.984807
4422.250458
4396.447589
4462.536860
4417.666592
4383.829177
4427.482731
4475.850523
4348.491529
4452.929791
4446.628688
4428.471214
4436.652779
4433.881228
4429.296948
4435.732686
4434.268250
4428.092739
4436.604551
4456.085288
4408.184799
4400.074594
4415.402891
4443.287267
4420.507457
4397.913450
4458.138292
4385.718932
4450.690157
4453.255896
4504.842512
4429.575432
4422.664812
4376.015707
4421.441667
4398.737546
4421.822686
4436.485528
4472.664475
4433.689050
4375.851336
4453.430368
4421.692038
4429.520119
4422.837053
4426.164504
4410.023672
4436.137713
4425.708524
4403.401400
4385.606641
4451.459207
4448.700080
4432.589559
4408.786496
4440.339676
4440.619329
4432.591286
4441.925994
4447.010700
4443.310805
4470.771759
4696.075344
4456.763934
4578.673729
4433.780724
4435.331484
4424.776501
4414.283049
4431.427939
4463.254356
4428.808521
4417.652975
4425.279372
4438.000395
4424.627453
4436.363633
4420.656226
4426.907327
4438.424119
4462.915770
4432.279642
4417.000415
4389.166693
4410.238025
4443.890754
4434.950754
4386.831096
4428.311693
4413.627591
4408.659151
4422.231348
4424.130719
4399.045510
4425.114541
4429.349320
4432.322142
4466.404115
4457.805047
4387.537705
4392.282055
4489.769181
4467.584683
4412.424065
4424.715161
4432.734438
4399.661628
4430.746119
4420.999834
4432.764028
4398.813322
4448.956436
4414.380388
4448.225722
4428.307069
4443.579554
4419.594109
4447.043773
4440.718886
4445.472702
4401.262351
4426.203368
4465.638478
4456.309121
4422.561062
4443.595348
4391.639156
4481.850044
4436.191576
4427.140115
4481.744088
4450.757498
4358.600939
4419.201215
4396.456436
4422.313298
4418.981338
4442.597959
4439.361526
4417.835133
4432.246208
4423.649111
4415.655838
4412.942887
4427.377363
4408.754285
4421.121212
4418.189828
4418.046498
4426.624338
4420.524865
4445.029709
4349.845898
4439.743178
4492.527375
4405.403592
4495.609456
4449.176584
4397.471536
4438.869530
4467.970406
4404.107505
4511.627079
4373.333019
4462.969785
4406.785711
4424.328486
4428.462639
4417.573368
4413.086062
4433.748807
4411.572550
4408.937290
4435.121254
4428.082458
4434.060172
4412.453011
4425.327787
4396.284954
4430.299943
4418.972969
4443.583756
4407.165273
4396.706728
4438.933200
4421.951306
4453.084771
4401.847946
4465.256106
4400.401332
4472.770176
4428.865327
4439.259694
4454.716094
4365.481452
4391.542224
4421.516919
4424.432366
4428.862243
4429.207889
4430.283240
4440.775730
4409.534708
4461.884559
4428.926977
4426.142544
4420.805771
4417.454923
4457.421246
4400.524890
4411.274239
4431.369219
4429.135509
4459.553855
4394.981624
4442.045462
4451.300008
4409.213929
4429.105781
4473.615751
4392.897642
4350.971111
4494.827492
4442.560953
4393.656262
4474.034100
4458.593186
4417.755064
4425.561784
4420.968146
4418.901978
4424.185049
4418.040099
4445.002758
4393.471312
4436.189549
4421.355264
4416.987410
4393.259122
4436.562618
4438.773920
4430.876728
4408.973124
4435.848202
4412.513395
4422.825580
4397.459090
4429.443535
4410.380629
4535.819510
4452.919814
4471.002647
4465.802983
4449.233557
4420.589494
4397.091433
4474.014963
4358.089723
4417.257645
4421.218240
4421.712983
4437.075016
4428.952227
4413.066521
4440.402924
4432.848398
4424.486451
4421.587404
4430.863915
4402.631979
4426.563145
4410.169454
4418.933540
4420.114703
4423.305150
4392.298981
4464.757789
4430.016884
4493.472324
4432.543723
4408.473388
4456.228874
4443.521050
4468.917822
4426.693172
4467.291400
4451.656054
4475.073616
4418.100018
4403.445538
4419.914793
4427.813163
4411.310013
4418.176130
4439.694181
4394.603137
4427.593411
4435.775738
4431.449702
4434.851428
4419.767290
4425.827568
4419.140832
4420.194970
4453.721955
4372.115901
4433.214459
4405.809206
4359.933079
4434.356935
4439.440123
4423.893639
4469.840744
4451.915086
4451.270289
4424.560276
4452.401367
4419.392992
4453.430592
4434.396935
4416.941822
4420.649598
4425.782384
4434.095885
4414.278688
4439.864686
4431.832665
4414.019859
4401.091963
4424.367375
4447.873886
4425.545493
4450.043659
4426.762241
4443.207865
4447.310362
4428.762223
4395.568476
4424.756914
4480.277415
4451.746527
4407.064907
4374.979065
4449.535263
4471.103922
4455.031308
4429.282464
4456.113483
4373.573201
4452.462616
4388.581758
4452.494593
4422.254175
4430.047438
4421.950485
4426.697506
4399.101222
4443.178944
4430.808911
4430.373632
4400.089396
4436.611493
4421.480578
4408.741477
4404.746387
4428.646444
4393.392458
4458.383677
4413.157568
4511.948927
4414.603347
4319.543070
4394.317797
4432.193447
4379.757739
4483.527105
4428.354698
4463.832824
4444.971511
4335.888815
4443.404103
4419.448246
4391.590943
4431.545625
4431.916981
4419.173773
4434.151428
4428.863584
4421.823630
4415.336393
4417.844102
4410.273978
4437.582471
4405.293385
4439.683317
4452.804293
4435.089752
4437.311336
4409.222743
4436.379420
4427.560598
4361.887531
4541.455996
4397.152973
4731.655717
4477.821709
4455.147580
4437.444583
4472.386270
4447.146698
4488.596749
4465.427071
4398.772731
4439.452921
4431.767035
4426.108755
4436.952787
4414.369585
4410.675145
4421.381154
4409.121962
4432.370283
4417.777201
4428.993333
4427.911079
4410.279948
4398.706098
4422.656316
4438.124987
4423.956013
4443.843059
4471.125155
4456.090319
4376.924387
4551.007217
4326.432367
4419.842690
4481.129102
4468.334141
4451.102032
4442.474143
4484.062081
4467.671319
4455.345205
4451.059949
4433.717524
4422.304843
4432.734835
4428.941723
4420.662473
4443.117869
4423.935610
4422.423457
4437.689860
4404.093347
4431.877631
4418.489916
4442.588172
4446.128675
4408.854406
4420.283736
4424.024245
4426.638243
4403.392036
4341.244631
4445.120359
4492.470688
4441.498339
4446.505140
4464.954773
4425.465005
4456.879294
4409.456897
4345.670301
4354.915111
4353.510270
4427.663204
4434.525467
4414.250753
4418.060789
4441.461986
4408.271019
4447.214830
4403.142089
4439.770940
4435.291142
4424.128652
4418.875460
4400.409558
4413.081490
4419.999359
4456.230957
4434.995324
4402.835518
4507.513044
4444.275431
4412.661466
4496.791871
4477.618458
4473.135444
4459.566433
4427.276505
4400.286598
4469.843555
4491.703952
4423.560716
4436.954786
4427.004398
4424.222407
4442.401446
4413.530508
4428.144139
4402.011391
4431.233367
4409.488348
4417.441082
4418.752929
4414.963478
4431.371034
4399.900657
4444.641902
4438.899136
4411.379905
4419.771678
4451.278731
4434.860686
4462.183667
4427.123828
4486.165084
4485.356177
4440.018160
4436.510404
4421.622846
4453.721231
4427.623839
4479.927810
4394.398848
4420.875593
4433.454243
4432.021315
4416.683053
4441.912978
4415.033334
4441.927409
4443.572572
4422.857413
4450.142843
4415.006669
4436.437159
4408.281770
4446.573766
4458.440455
4398.938545
4436.161998
4454.652092
4425.509512
4448.241579
4431.657517
4456.753086
4461.214110
4431.314930
4445.102631
4460.586000
4495.829416
4429.842893
4470.283729
4391.810301
4411.349304
4383.606215
4427.740518
4432.315109
4414.262686
4428.687074
4421.683698
4424.434949
4417.978209
4436.634327
4404.474639
4441.249174
4409.998131
4447.403691
4402.275123
4421.024348
4405.541477
4407.983298
4415.476273
4448.511611