# vtk DataFile Version 2.0
mfree iwf
ASCII

DATASET UNSTRUCTURED_GRID
POINTS 6231 float
0.000000 0.000300 0.000000
0.000000 0.000310 0.000000
0.000000 0.000320 0.000000
0.000000 0.000330 0.000000
0.000000 0.000340 0.000000
0.000000 0.000350 0.000000
0.000001 0.000360 0.000000
0.000001 0.000370 0.000000
0.000001 0.000380 0.000000
0.000001 0.000390 0.000000
0.000001 0.000400 0.000000
0.000001 0.000410 0.000000
0.000001 0.000420 0.000000
0.000001 0.000430 0.000000
0.000002 0.000441 0.000000
0.000002 0.000451 0.000000
0.000002 0.000460 0.000000
0.000002 0.000471 0.000000
0.000002 0.000480 0.000000
0.000002 0.000492 0.000000
0.000006 0.000501 0.000000
0.000286 0.000630 0.000000
0.000296 0.000709 0.000000
0.000287 0.000648 0.000000
0.000301 0.000723 0.000000
0.000310 0.000744 0.000000
0.000337 0.000786 0.000000
0.000341 0.000790 0.000000
0.000353 0.000797 0.000000
0.000363 0.000805 0.000000
0.000392 0.000831 0.000000
0.000010 0.000300 0.000000
0.000010 0.000310 0.000000
0.000010 0.000320 0.000000
0.000010 0.000330 0.000000
0.000010 0.000340 0.000000
0.000010 0.000350 0.000000
0.000011 0.000360 0.000000
0.000011 0.000370 0.000000
0.000011 0.000380 0.000000
0.000011 0.000390 0.000000
0.000011 0.000400 0.000000
0.000011 0.000411 0.000000
0.000011 0.000420 0.000000
0.000011 0.000430 0.000000
0.000012 0.000440 0.000000
0.000012 0.000451 0.000000
0.000012 0.000460 0.000000
0.000012 0.000472 0.000000
0.000013 0.000478 0.000000
0.000010 0.000492 0.000000
0.000013 0.000498 0.000000
0.000323 0.000757 0.000000
0.000330 0.000767 0.000000
0.000336 0.000775 0.000000
0.000342 0.000779 0.000000
0.000357 0.000790 0.000000
0.000364 0.000796 0.000000
0.000376 0.000805 0.000000
0.000383 0.000814 0.000000
0.000387 0.000819 0.000000
0.000388 0.000826 0.000000
0.000020 0.000300 0.000000
0.000020 0.000310 0.000000
0.000020 0.000320 0.000000
0.000020 0.000330 0.000000
0.000020 0.000340 0.000000
0.000021 0.000351 0.000000
0.000020 0.000360 0.000000
0.000021 0.000370 0.000000
0.000020 0.000380 0.000000
0.000021 0.000390 0.000000
0.000021 0.000400 0.000000
0.000022 0.000410 0.000000
0.000020 0.000420 0.000000
0.000023 0.000431 0.000000
0.000020 0.000440 0.000000
0.000024 0.000451 0.000000
0.000021 0.000460 0.000000
0.000022 0.000470 0.000000
0.000021 0.000481 0.000000
0.000024 0.000494 0.000000
0.000020 0.000497 0.000000
0.000312 0.000725 0.000000
0.000323 0.000748 0.000000
0.000329 0.000760 0.000000
0.000336 0.000765 0.000000
0.000349 0.000767 0.000000
0.000355 0.000781 0.000000
0.000374 0.000797 0.000000
0.000382 0.000807 0.000000
0.000395 0.000811 0.000000
0.000401 0.000816 0.000000
0.000030 0.000300 0.000000
0.000030 0.000310 0.000000
0.000030 0.000320 0.000000
0.000030 0.000331 0.000000
0.000030 0.000340 0.000000
0.000031 0.000349 0.000000
0.000030 0.000360 0.000000
0.000031 0.000370 0.000000
0.000030 0.000380 0.000000
0.000032 0.000391 0.000000
0.000030 0.000400 0.000000
0.000032 0.000411 0.000000
0.000031 0.000420 0.000000
0.000032 0.000430 0.000000
0.000031 0.000440 0.000000
0.000030 0.000450 0.000000
0.000032 0.000459 0.000000
0.000036 0.000473 0.000000
0.000030 0.000478 0.000000
0.000033 0.000488 0.000000
0.000032 0.000497 0.000000
0.000063 0.000500 0.000000
0.000328 0.000745 0.000000
0.000338 0.000753 0.000000
0.000353 0.000775 0.000000
0.000368 0.000775 0.000000
0.000365 0.000784 0.000000
0.000375 0.000786 0.000000
0.000382 0.000793 0.000000
0.000391 0.000800 0.000000
0.000407 0.000808 0.000000
0.000040 0.000300 0.000000
0.000040 0.000310 0.000000
0.000040 0.000320 0.000000
0.000040 0.000329 0.000000
0.000040 0.000340 0.000000
0.000040 0.000351 0.000000
0.000041 0.000360 0.000000
0.000041 0.000369 0.000000
0.000041 0.000380 0.000000
0.000039 0.000390 0.000000
0.000042 0.000399 0.000000
0.000041 0.000410 0.000000
0.000042 0.000420 0.000000
0.000040 0.000431 0.000000
0.000042 0.000439 0.000000
0.000043 0.000450 0.000000
0.000043 0.000460 0.000000
0.000037 0.000470 0.000000
0.000045 0.000478 0.000000
0.000043 0.000496 0.000000
0.000040 0.000498 0.000000
0.000286 0.000541 0.000000
0.000340 0.000743 0.000000
0.000348 0.000756 0.000000
0.000355 0.000759 0.000000
0.000360 0.000767 0.000000
0.000377 0.000773 0.000000
0.000392 0.000789 0.000000
0.000401 0.000791 0.000000
0.000401 0.000800 0.000000
0.000412 0.000802 0.000000
0.000050 0.000300 0.000000
0.000050 0.000310 0.000000
0.000050 0.000319 0.000000
0.000049 0.000331 0.000000
0.000052 0.000340 0.000000
0.000050 0.000349 0.000000
0.000052 0.000360 0.000000
0.000049 0.000371 0.000000
0.000053 0.000379 0.000000
0.000050 0.000390 0.000000
0.000053 0.000400 0.000000
0.000049 0.000410 0.000000
0.000054 0.000420 0.000000
0.000050 0.000430 0.000000
0.000054 0.000440 0.000000
0.000047 0.000451 0.000000
0.000055 0.000459 0.000000
0.000053 0.000470 0.000000
0.000056 0.000483 0.000000
0.000049 0.000488 0.000000
0.000050 0.000498 0.000000
0.000316 0.000741 0.000000
0.000299 0.000700 0.000000
0.000350 0.000747 0.000000
0.000366 0.000758 0.000000
0.000373 0.000766 0.000000
0.000384 0.000782 0.000000
0.000386 0.000771 0.000000
0.000393 0.000778 0.000000
0.000408 0.000789 0.000000
0.000418 0.000792 0.000000
0.000060 0.000300 0.000000
0.000060 0.000310 0.000000
0.000061 0.000321 0.000000
0.000060 0.000329 0.000000
0.000061 0.000339 0.000000
0.000059 0.000351 0.000000
0.000062 0.000360 0.000000
0.000060 0.000369 0.000000
0.000063 0.000381 0.000000
0.000058 0.000390 0.000000
0.000064 0.000399 0.000000
0.000059 0.000409 0.000000
0.000064 0.000419 0.000000
0.000058 0.000431 0.000000
0.000066 0.000440 0.000000
0.000060 0.000449 0.000000
0.000066 0.000460 0.000000
0.000055 0.000471 0.000000
0.000064 0.000475 0.000000
0.000068 0.000486 0.000000
0.000058 0.000496 0.000000
0.000312 0.000735 0.000000
0.000329 0.000736 0.000000
0.000353 0.000741 0.000000
0.000363 0.000748 0.000000
0.000373 0.000755 0.000000
0.000386 0.000762 0.000000
0.000404 0.000771 0.000000
0.000403 0.000778 0.000000
0.000414 0.000781 0.000000
0.000423 0.000784 0.000000
0.000070 0.000300 0.000000
0.000070 0.000310 0.000000
0.000070 0.000319 0.000000
0.000070 0.000330 0.000000
0.000072 0.000342 0.000000
0.000069 0.000349 0.000000
0.000072 0.000359 0.000000
0.000068 0.000372 0.000000
0.000073 0.000378 0.000000
0.000070 0.000390 0.000000
0.000074 0.000401 0.000000
0.000068 0.000411 0.000000
0.000075 0.000422 0.000000
0.000067 0.000429 0.000000
0.000075 0.000438 0.000000
0.000066 0.000452 0.000000
0.000077 0.000459 0.000000
0.000073 0.000470 0.000000
0.000076 0.000486 0.000000
0.000068 0.000496 0.000000
0.000076 0.000496 0.000000
0.000286 0.000527 0.000000
0.000324 0.000727 0.000000
0.000344 0.000734 0.000000
0.000371 0.000742 0.000000
0.000380 0.000753 0.000000
0.000392 0.000755 0.000000
0.000397 0.000764 0.000000
0.000408 0.000763 0.000000
0.000418 0.000773 0.000000
0.000429 0.000776 0.000000
0.000080 0.000300 0.000000
0.000080 0.000310 0.000000
0.000080 0.000320 0.000000
0.000081 0.000330 0.000000
0.000080 0.000339 0.000000
0.000081 0.000350 0.000000
0.000080 0.000361 0.000000
0.000080 0.000369 0.000000
0.000082 0.000382 0.000000
0.000078 0.000390 0.000000
0.000084 0.000398 0.000000
0.000078 0.000409 0.000000
0.000083 0.000417 0.000000
0.000079 0.000431 0.000000
0.000087 0.000446 0.000000
0.000077 0.000447 0.000000
0.000086 0.000463 0.000000
0.000074 0.000470 0.000000
0.000087 0.000473 0.000000
0.000086 0.000483 0.000000
0.000084 0.000495 0.000000
0.000307 0.000725 0.000000
0.000293 0.000699 0.000000
0.000357 0.000733 0.000000
0.000367 0.000737 0.000000
0.000381 0.000744 0.000000
0.000394 0.000747 0.000000
0.000402 0.000752 0.000000
0.000415 0.000762 0.000000
0.000423 0.000765 0.000000
0.000434 0.000767 0.000000
0.000090 0.000300 0.000000
0.000090 0.000310 0.000000
0.000090 0.000320 0.000000
0.000090 0.000330 0.000000
0.000090 0.000340 0.000000
0.000091 0.000351 0.000000
0.000090 0.000360 0.000000
0.000091 0.000370 0.000000
0.000089 0.000379 0.000000
0.000092 0.000389 0.000000
0.000092 0.000403 0.000000
0.000091 0.000411 0.000000
0.000089 0.000424 0.000000
0.000097 0.000427 0.000000
0.000088 0.000435 0.000000
0.000097 0.000456 0.000000
0.000087 0.000453 0.000000
0.000097 0.000471 0.000000
0.000106 0.000480 0.000000
0.000089 0.000495 0.000000
0.000095 0.000495 0.000000
0.000286 0.000556 0.000000
0.000322 0.000722 0.000000
0.000312 0.000715 0.000000
0.000338 0.000731 0.000000
0.000382 0.000734 0.000000
0.000394 0.000739 0.000000
0.000409 0.000749 0.000000
0.000418 0.000751 0.000000
0.000428 0.000756 0.000000
0.000438 0.000759 0.000000
0.000100 0.000300 0.000000
0.000100 0.000310 0.000000
0.000100 0.000320 0.000000
0.000100 0.000331 0.000000
0.000100 0.000340 0.000000
0.000100 0.000349 0.000000
0.000101 0.000360 0.000000
0.000101 0.000371 0.000000
0.000100 0.000380 0.000000
0.000102 0.000391 0.000000
0.000098 0.000399 0.000000
0.000103 0.000408 0.000000
0.000101 0.000417 0.000000
0.000099 0.000436 0.000000
0.000109 0.000443 0.000000
0.000097 0.000445 0.000000
0.000107 0.000460 0.000000
0.000098 0.000467 0.000000
0.000094 0.000481 0.000000
0.000106 0.000491 0.000000
0.000101 0.000494 0.000000
0.000287 0.000653 0.000000
0.000288 0.000660 0.000000
0.000292 0.000693 0.000000
0.000373 0.000728 0.000000
0.000387 0.000731 0.000000
0.000400 0.000734 0.000000
0.000411 0.000740 0.000000
0.000419 0.000739 0.000000
0.000430 0.000749 0.000000
0.000442 0.000750 0.000000
0.000110 0.000300 0.000000
0.000110 0.000310 0.000000
0.000110 0.000321 0.000000
0.000110 0.000330 0.000000
0.000110 0.000340 0.000000
0.000111 0.000351 0.000000
0.000111 0.000361 0.000000
0.000110 0.000368 0.000000
0.000111 0.000379 0.000000
0.000110 0.000390 0.000000
0.000112 0.000400 0.000000
0.000111 0.000413 0.000000
0.000115 0.000423 0.000000
0.000106 0.000427 0.000000
0.000113 0.000434 0.000000
0.000107 0.000450 0.000000
0.000115 0.000461 0.000000
0.000111 0.000471 0.000000
0.000116 0.000480 0.000000
0.000111 0.000493 0.000000
0.000119 0.000492 0.000000
0.000286 0.000593 0.000000
0.000286 0.000575 0.000000
0.000321 0.000711 0.000000
0.000346 0.000724 0.000000
0.000344 0.000716 0.000000
[...]
POINT_DATA 6231
SCALARS density float 1
LOOKUP_TABLE default
4403.062491
4424.111749
4419.924787
4423.072544
4426.500910
4425.630767
4425.474189
4425.597287
4427.148949
4427.767084
4424.350483
4428.174807
4429.239554
4429.941221
4430.268133
4440.439360
4422.605529
4432.057992
4412.784948
4423.466027
4411.418942
4528.233061
4425.182955
4432.066749
4439.647676
4437.244215
4403.353909
4436.109736
4435.153872
4452.382183
4417.198834
4406.720997
4421.729742
4423.378219
4426.462608
4420.928622
4425.114760
4425.360546
4419.866307
4428.418565
4433.356229
4429.062716
4433.215536
4425.891340
4435.704454
4415.057894
4428.334788
4409.778887
4443.317880
4460.660753
4460.319672
4415.713410
4394.581221
4390.071856
4404.415899
4458.118483
4385.719744
4403.249581
4419.217454
4414.329704
4433.784933
4462.539046
4415.556399
4430.965115
4421.081814
4424.161665
4423.264898
4426.448981
4428.628775
4439.410944
4424.489880
4417.543538
4427.432113
4430.688593
4413.952224
4442.612431
4415.832023
4475.192301
4399.303351
4453.794243
4352.560658
4449.719907
4420.034567
4416.077000
4399.157046
4396.464682
4514.418625
4343.273861
4422.462893
4458.357103
4407.633678
4432.103724
4399.205884
4420.781250
4420.848496
4420.501214
4426.300567
4433.810805
4433.083994
4416.101051
4422.245421
4418.036225
4451.730575
4412.723128
4439.449976
4423.313678
4443.329806
4402.175536
4431.517074
4389.944431
4457.734286
4369.174389
4556.284515
4370.126514
4431.539275
4519.627001
4464.076064
4455.397593
4380.945254
4492.596361
4417.228627
4413.569250
4510.535397
4448.606773
4427.109937
4426.822118
4440.174319
4434.178624
4415.832602
4425.547252
4432.126230
4443.942501
4414.088593
4438.785785
4397.705752
4450.735139
4397.570673
4443.627541
4415.520233
4450.120490
4387.364734
4507.598872
4310.725296
4419.850787
4384.111705
4566.735246
4368.550364
4394.871919
4470.215417
4463.042956
4427.773255
4380.143445
4435.522211
4373.039266
4419.573908
4436.046079
4422.286795
4416.741904
4418.926627
4439.807505
4441.176369
4404.813967
4433.752277
4416.886537
4438.739008
4431.328830
4444.638627
4398.219477
4464.418877
4358.985229
4477.899019
4357.266327
4479.102372
4363.072122
4534.941502
4383.392904
4437.425700
4419.181244
4483.671681
4430.469368
4415.100733
4458.662753
4432.182457
4401.357321
4451.600350
4415.863801
4424.200325
4426.919656
4441.608604
4440.585048
4415.302488
4425.429785
4437.706305
4439.570366
4417.911737
4441.091625
4403.538313
4437.468483
4431.124751
4447.002862
4421.041891
4476.320971
4404.236105
4517.207933
4369.777277
4482.696280
4431.393487
4418.466154
4363.495554
4430.974394
4403.357681
4441.406352
4433.975768
4457.744980
4434.727467
4402.318722
4451.654871
4422.573298
4429.993817
4423.652039
4410.131956
4446.621217
4429.229793
4421.747321
4430.331945
4416.597543
4433.223981
4434.546852
4425.237832
4419.792340
4421.154925
4448.420424
4457.169714
4441.230473
4463.073276
4446.808044
4411.857084
4386.319881
4601.545680
4465.062518
4455.454668
4461.394810
4430.840119
4456.433073
4397.930091
4448.780218
4395.305727
4419.715892
4427.317052
4431.577781
4415.569176
4440.644596
4438.163282
4408.807900
4449.176785
4418.861220
4443.107101
4438.771762
4392.782209
4423.248222
4424.319431
4444.551151
4467.985662
4390.032886
4455.787939
4451.341153
4351.647501
4471.267437
4410.954181
4425.302597
4415.720159
4398.602760
4448.652768
4400.786850
4426.316217
4433.068454
4450.774169
4440.985776
4427.981638
4426.656044
4433.696602
4434.239365
4425.953656
4404.313334
4445.137400
4433.990936
4415.885624
4445.809009
4408.091037
4450.036618
4417.427856
4416.197687
4462.189078
4407.623915
4380.300652
4440.821099
4439.244403
4427.531922
4425.937994
4413.837469
4538.538104
4450.503802
4428.363423
4469.903601
4442.600556
4431.364795
4455.277572
4393.627044
4419.773598
4426.497277
4432.177254
4428.432524
4421.377907
4430.252098
4444.364149
4437.290355
4408.339279
4438.209302
4423.590234
4417.597655
4451.580227
4413.115871
4415.585314
4397.290273
4437.657061
4446.831525
4413.901044
4471.190151
4418.664549
4437.446518
4417.995292
4441.154167
4436.477995
4420.582630
4387.861496
4447.117518
4443.169717
4433.305826
4461.123393
4440.666056
4409.193021
4433.613160
4427.151119
4439.512738
4431.741414
4413.358705
4411.970406
4450.223833
4441.969576
4413.208206
4443.785345
4404.707086
4453.405455
4399.103232
4453.964917
4406.607881
4448.912225
4470.620488
4384.465588
4465.774971
4398.789535
4413.077365
4577.799425
4570.926928
4412.053831
4400.424435
4439.266265
4423.340280
4458.420245
4451.812510
4410.565421
4438.720017
4435.438109
4421.658352
4430.407661
4418.248711
4439.254263
4446.115649
4407.300499
4409.086183
4441.690451
4437.519011
4410.723485
4444.336423
4423.091017
4451.471160
4433.489949
4371.558520
4428.297410
4394.836041
4416.758580
4439.474744
4393.863458
4451.104855
4425.994366
4427.257376
4449.300277
4441.342201
4386.752589
4397.637964
4408.365557
4408.084012
4410.474056
4430.636958
4433.497691
4431.907640
4430.671997
4421.601181
4412.873273
4435.785317
4446.454234
4427.078621
4394.378416
4447.505414
4408.999137
4442.449461
4418.705063
4398.397522
4433.602258
4417.803296
4448.522437
4496.691621
4421.443611
4438.362769
4507.871950
4419.213208
4422.604528
4422.675115
4425.459651
4438.227620
4443.906436
4464.184530
4467.085297
4413.632779
4431.072648
4437.645508
4430.330527
4416.465870
4424.072660
4437.105092
4430.696409
4404.424571
4431.664925
4433.401444
4441.417148
4400.861698
4435.266676
4405.122625
4448.670225
4384.607775
4420.634912
4498.738974
4573.551518
4387.218650
4372.293614
4406.507320
4378.306448
4476.677420
4461.161486
4381.406791
4483.347834
4458.861487
4410.311073
4425.544976
4436.842872
4428.392229
4430.234422
4424.562903
4443.003548
4433.546593
4405.266590
4421.311836
4445.542219
4433.805297
4395.687455
4426.855115
4427.930210
4437.002246
4384.267342
4458.687436
4408.029092
4484.846756
4351.078988
4331.462812
4506.927314
4397.724269
4419.531627
4423.604034
4403.694518
4466.414744
4391.132370
4449.037589
4402.630392
4413.057267
4424.757852
4412.444398
4426.973549
4439.491307
4431.594720
4415.021794
4425.231431
4442.255971
4437.938715
4400.957295
4418.427769
4443.310129
4437.464389
4392.391774
4444.780589
4421.284685
4430.671572
4420.937234
4416.070993
4496.065035
4485.254695
4425.294539
4406.848781
4388.585803
4451.248939
4442.136090
4413.315480
4429.775771
4436.110534
4442.512541
4426.976240
4436.605813
4419.565167
4435.523844
4429.804003
4420.037427
4442.713550
4434.242353
4416.920891
4419.428476
4438.354346
4441.006832
4400.134474
4419.696026
4450.856376
4416.494933
4438.300343
4392.003509
4449.012416
4399.295253
4470.355609
4331.798846
4358.592682
4433.067816
4408.224420
4437.486972
4460.388079
4375.078259
4464.053335
4452.577156
4438.239590
4444.038723
4416.597620
4420.629520
4431.412399
4428.709673
4431.628614
4445.408611
4411.623834
4436.294260
4436.486819
4419.399354
4412.731169
4450.583670
4423.198921
4415.856297
4411.757193
4447.653109
4402.044553
4449.734874
4332.124351
4476.002387
4390.187172
4452.799714
4401.502224
4417.433322
4404.722879
4461.944572
4484.689141
4383.484719
4443.275619
4460.639237
4419.148635
4428.701167
4412.825125
4430.965843
4429.723472
4428.230883
4413.938560
4431.399278
4449.748395
4398.950862
4439.835906
4421.865127
4432.054217
4397.070755
4453.282921
4409.905129
4429.570635
4402.595326
4445.862269
4457.709177
4482.028457
4429.528679
4553.795189
4388.229645
4444.274885
4465.854934
4408.951606
4400.423880
4362.990620
4421.137769
4414.278505
4439.476533
4432.686484
4400.053046
4425.600885
4423.168551
4429.181158
4437.580672
4430.929831
4416.356720
4426.913419
4452.475065
4391.808855
4438.998604
4424.625684
4444.692079
4385.515429
4448.870822
4433.906388
4405.072392
4403.429014
4461.873651
4366.101457
4397.852861
4578.992504
4397.034426
4485.696595
4473.539904
4418.688627
4426.068275
4438.264207
4429.794673
4466.305307
4403.307802
4402.392803
4420.413151
4443.724460
4431.282330
4419.521753
4414.873527
4432.154063
4441.927712
4403.121995
4428.184081
4445.298497
4412.535205
4407.981140
4457.726724
4413.108269
4413.149738
4474.905761
4402.311828
4469.821337
4409.010355
4478.308858
4408.721593
4441.813806
4432.257175
4425.302663
4425.133303
4424.297877
4451.310233
4439.645163
4367.730092
4417.172703
4455.181896
4433.604440
4430.601306
4407.614310
4441.309010
4441.503341
4409.545908
4411.948157
4430.591042
4448.906474
4381.718338
4448.276291
4434.386255
4422.982324
4438.313054
4415.242736
4417.175642
4401.684622
4453.379259
4404.523805
4447.807190
4413.824319
4426.254315
4436.348374
4476.836660
4442.158290
4443.869953
4453.133796
4407.954712
4485.225925
4412.594624
4423.635888
4426.986245
4422.631664
4440.445814
4440.445774
4403.443479
4438.992836
4434.195699
4409.138500
4424.144122
4428.385774
4437.180610
4406.165233
4403.823618
4441.861244
4424.749663
4423.028754
4445.035440
4408.538719
4423.767713
4423.907467
4422.362651
4420.335989
4467.911473
4441.098348
4452.056650
4461.038809
4442.041939
4447.280233
4422.888260
4425.810316
4428.113714
4425.123711
4429.409079
4429.025242
4406.900500
4440.663035
4439.085278
4406.258006
4434.620098
4411.256342
4442.013419
4400.050123
4434.076897
4447.379592
4404.663371
4416.387290
4454.701292
4395.929809
4428.555215
4466.641763
4534.050405
4407.853628
4435.449520
4477.920319
4428.250564
4446.738206
4428.719051
4439.639862
4441.206283
4419.004429
4419.516778
4448.337476
4425.983738
4427.864178
4420.390178
4439.629164
4441.630451
4404.380485
4421.476986
4446.626779
4411.254843
4419.673132
4420.384452
4421.457940
4386.706254
4448.922811
4432.408687
4445.293029
4409.869753
4463.448338
4372.740169
4424.389946
4416.975867
4384.570948
4486.294609
4439.013866
4438.984435
4434.208474
4465.260926
4445.465712
4454.513420
4420.988792
4412.535790
4423.283267
4443.601042
4428.524395
4425.800259
4398.320689
4450.187197
4447.441964
4395.179342
4423.637773
4435.036038
4412.202972
4424.225723
4425.644120
4411.130780
4371.281531
4450.186352
4422.241917
4490.267300
4366.409150
4483.058571
4393.865858
4605.324879
4440.033287
4448.427785
4461.749812
4455.804552
4421.625580
4419.710236
4443.679817
4398.042904
4423.792279
4435.269853
4431.543058
4409.298260
4439.212056
4441.522552
4420.734338
4401.387108
4448.606395
4433.438914
4409.044248
4413.683944
4423.443222
4422.669602
4426.420797
4413.014631
4445.581221
4393.023616
4421.246086
4430.265825
4503.645184
4391.660007
4343.225063
4473.425498
4420.383002
4443.098985
4445.563303
4442.365827
4439.288888
4450.251296
4438.798438
4411.831786
4429.440978
4420.699355
4444.785504
4435.897792
4407.444735
4427.324167
4432.126855
4430.102764
4396.804396
4439.491005
4420.863315
4411.792465
4408.947977
4428.943243
4400.803448
4412.077477
4422.295393
4436.836021
4397.971027
4461.480170
4474.487985
4539.336536
4473.552539
4482.904839
4471.344514
4410.971501
4452.459848
4443.408505
4433.678245
4446.199117
4410.702877
4422.231935
4426.327883
4432.829235
4411.124345
4438.082694
4447.126625
4409.178267
4404.753233
4433.210948
4437.859094
4399.378089
4434.431352
4416.394544
4417.138039
4437.402648
4446.433745
4429.712077
4440.825511
4401.018716
4443.435487
4475.376295
4440.447680
4429.172200
4479.256651
4459.009305
4442.370889
4445.656131
4463.748557
4424.401301
4422.407486
4429.424812
4426.290905
4434.282404
4418.016896
4440.961388
4443.375835
4387.497055
4438.190303
4438.620209
4410.415544
4402.121935
4435.042063
4424.102439
4413.112677
4413.943137
4402.678673
4405.447820
4438.217547
4423.614436
4452.271886
4448.089369
4434.076998
4464.831785
4456.402814
4455.474316
4462.790488
4440.018346
4452.295203
4432.915797
4432.987727
4449.371936
4405.073539
4424.681482
4431.404290
4432.926871
4423.759250
4413.275936
4447.374643
4442.308426
4393.290121
4427.876764
4429.374712
4426.561738
4396.669053
4424.745376
4437.368353
4433.760496
4427.661801
4430.837230
4440.727439
4409.873994
4444.966095
4455.192318
4452.851045
4449.809649
4456.514711
4438.187787
4445.021747
4423.984652
4401.398300
4452.968037
4427.388049
4437.724941
4435.710507
4427.292402
4426.976596
4429.421488
4432.993804
4431.626768
4397.844808
4439.155865
4437.074481
4406.713319
4419.858533
4422.804128
4431.559094
4383.989721
4394.861349
4415.407422
4410.690963
4413.846745
4421.347200
4444.924112
4433.752866
4437.167475
4448.780460
4454.511482
4436.756658
4456.876400
4445.152678
4479.249117
4411.723582
4432.037059
4419.137020
4437.751533
4420.832363
4441.148246
4429.071737
4426.305661
4407.592508
4439.851999
4441.738940
4398.552143
4430.579020
4439.753705
4412.583173
4415.466540
4427.526582
4418.411979
4438.307351
4422.610831
4427.232675
4416.223708
4443.873632
4422.472358
4440.044150
4449.510631
4448.793477
4445.788815
4450.732033
4442.982308
4405.527750
4402.887243
4430.314625
4404.533464
4429.297933
4432.792025
4438.262053
4408.106325
4442.240817
4440.628958
4411.536179
4397.405751
4438.648845
4437.240658
4399.075642
4440.185468
4403.989991
4421.475650
4408.816676
4398.738008
4422.205035
4425.227101
4416.702969
4428.450983
4448.362390
4436.317312
4422.491530
4457.337604
4437.736188
4452.474254
4450.689887
4437.763825
4474.283453
4489.273303
4407.384513
4437.605561
4433.546564
4419.960350
4446.552248
4424.790855
4413.118206
4439.788789
4444.923566
4411.622902
4422.102292
4413.870787
4442.809881
4421.764320
4429.690016
4425.359142
4437.040361
4418.046220
4430.938325
4434.012546
4430.742751
4435.904756
4456.961169
4448.498355
4453.005607
4421.877014
4431.403601
4465.395690
4414.425444
4392.591181
4459.851762
4405.553179
4426.235328
4426.922808
4435.126985
4441.470147
4399.646120
4450.614907
4428.229999
4405.924571
4423.347232
4427.084957
4432.883172
4409.471500
4426.930822
4423.552523
4406.496058
4427.160867
4418.020550
4438.721444
4411.560064
4423.418585
4428.743446
4441.218943
4424.349980
4424.560945
4451.759198
4445.414686
4429.095802
4465.043051
4458.451956
4449.568423
4455.065700
4423.939107
4421.326775
4443.643620
4415.538395
4428.462832
4431.658835
4397.594722
4441.618265
4441.382479
4419.275873
4425.868619
4449.293507
4402.172156
4432.519594
4432.334033
4427.665042
4425.520782
4409.216564
4445.873548
4436.899010
4429.951528
4425.961070
4443.415849
4451.141994
4427.556613
4452.304288
4456.378103
4428.872959
4445.062084
4452.894431
4439.754006
4429.452991
4425.073700
4415.400843
4425.984011
4449.507688
4412.469958
4439.844923
4439.918777
4397.747319
4446.139025
4404.354431
4426.591103
4438.133265
4420.815761
4419.207186
4438.897501
4417.877978
4420.882838
4436.118524
4406.353254
4443.747209
4447.181711
4441.121531
4442.290325
4426.823555
4432.959297
4440.430555
4451.510516
4454.898364
4455.321880
4449.214511
4425.407541
4427.082921
4435.923983
4433.674143
4408.411597
4421.799722
4438.589163
4401.854150
4452.424686
4444.638270
4414.477633
4448.528266
4415.396909
4431.986644
4419.844584
4418.834233
4417.180396
4436.698767
4422.228732
4420.397570
4436.079261
4400.750914
4436.289070
4414.209219
4448.581626
4461.745607
4438.183221
4439.210072
4432.045366
4452.943607
4447.687838
4426.938521
4432.879760
4411.056585
4428.082977
4438.433554
4436.285189
4403.395582
4428.731372
4437.876617
4399.770534
4429.175736
4393.498491
4407.131878
4418.290559
4450.500366
4416.868116
4429.201775
4422.416271
4430.951165
4423.429886
4411.965309
4432.219118
4437.837919
4444.658590
4436.193508
4416.952035
4470.990515
4457.113260
4467.526692
4457.427560
4457.975292
4425.537069
4432.612163
4433.798801
4439.860586
4428.796123
4435.366764
4438.275104
4433.135602
4404.780445
4450.459328
4467.973926
4400.681242
4455.717865
4462.934357
4395.534131
4447.637880
4425.132680
4403.355628
4452.423646
4429.491581
4426.439043
4440.552466
4420.144083
4445.276482
4440.223088
4445.407732
4453.132014
4434.985434
4466.556132
4452.296867
4461.491178
4428.267003
4428.268971
4414.948574
4422.502334
4391.501986
4448.761297
4437.454840
4416.369362
4431.312034
4420.866000
4385.048402
4443.440915
4438.327696
4405.900856
4433.078311
4380.124720
4431.543021
4432.666099
4444.616109
4440.674684
4450.177942
4390.145560
4452.381591
4425.104359
4438.598936
4438.356342
4445.116538
4453.547696
4462.612242
4444.124322
4461.568575
4427.505319
4424.025735
4436.980432
4435.021787
4427.881788
4422.776282
4421.331116
4454.659707
4411.618428
4446.259599
4445.205381
4441.918188
4386.136726
4431.681422
4424.620188
4465.085128
4420.589586
4408.509235
4441.833140
4392.093513
4439.683923
4446.094223
4446.319255
4437.192335
4455.711763
4438.032260
4466.124558
4453.610761
4452.363932
4454.778137
4459.151366
4423.342939
4421.020061
4431.061393
4408.355099
4421.006072
4423.063261
4427.882059
4429.422193
4446.607050
4409.271625
4429.195748
4387.779994
4442.122567
4440.539991
4415.475121
4434.058132
4411.006868
4441.058782
4462.845246
4394.959490
4445.065115
4411.606123
4437.570950
4413.048807
4449.251756
4430.017752
4468.976616
4459.609342
4456.515117
4451.758202
4458.013040
4427.446875
4437.562642
4423.843514
4428.865202
4450.016225
4440.898196
4445.399593
4416.467681
4422.030785
4437.439309
4459.057348
4451.122593
4421.192589
4411.606208
4405.662857
4483.735095
4438.733565
4439.876454
4410.738467
4443.574109
4445.578227
4438.901932
4466.968424
4433.875472
4445.848586
4456.334384
4427.264865
4471.215495
4463.962151
4443.640161
4457.662323
4429.900658
4430.606692
4416.480344
4423.784652
4400.735793
4446.117100
4428.164574
4416.580495
4418.613735
4439.645052
4391.174175
4398.575980
4464.210613
4432.457453
4396.449872
4422.925093
4438.441332
4437.112552
4454.489636
4424.759584
4413.021285
4436.834556
4414.154302
4409.499355
4465.795263
4429.114661
4461.102090
4448.683898
4453.389638
4454.781418
4455.144755
4433.512300
4425.825108
4441.009536
4443.905552
4425.765042
4436.626102
4426.536399
4416.473832
4447.700446
4427.031148
4448.297956
4441.506575
4409.452969
4410.446080
4447.340185
4444.671190
4417.996541
4420.761593
4418.007185
4424.953412
4449.446503
4412.458909
4427.596630
4470.496813
4445.178691
4407.539244
4441.305440
4445.706379
4459.035838
4450.645204
4451.196026
4427.352010
4423.809310
4437.418427
4401.554289
4447.642096
4426.017632
4421.550472
4448.852911
4420.166148
4420.253557
4406.402168
4424.105713
4435.964041
4446.991279
4398.533663
4436.862982
4460.770886
4444.178114
4416.614427
4457.805197
4442.528360
4455.935032
4429.361602
4455.154679
4405.719670
4470.493436
4442.099317
4443.735208
4452.750430
4454.221968
4448.742117
4436.417578
4435.806747
4435.322359
4439.676536
4450.059022
4419.974569
4437.265046
4409.313875
4432.017948
4450.719240
4424.969420
4437.330968
4432.515955
4431.551499
4454.468647
4432.711572
4432.330847
4439.499171
4428.116327
4407.746234
4463.206770
4452.459078
4414.148532
4449.572663
4462.608512
4456.296469
4426.264906
4430.719220
4470.727690
4461.842167
4449.628759
4431.336486
4431.003546
4412.015498
4434.659561
4404.842881
4436.404358
4435.634938
4436.689291
4431.756181
4419.957074
4418.246862
4446.803112
4412.727157
4437.064632
4438.546213
4414.986550
4436.564674
4432.959152
4451.157788
4424.949740
4439.828484
4427.269410
4444.185170
4454.041758
4419.672993
4441.466884
4450.685857
4452.118308
4447.897165
4444.777146
4446.726767
4428.739465
4433.832176
4442.769554
4419.623630
4453.241868
4414.561808
4437.020858
4390.378725
4434.244542
4446.777642
4441.842525
4434.543588
4442.055713
4406.386579
4412.976882
4441.461546
4445.167460
4425.339839
4429.150661
4437.386971
4442.721057
4455.977191
4447.995955
4435.497641
4462.889679
4445.341045
4418.410698
4432.666903
4444.540336
4465.878817
4443.553513
4449.715079
4427.025941
4434.416777
4427.526515
4412.181255
4454.933592
4430.362929
4460.791635
4433.661193
4406.244556
4417.894927
4421.996130
4455.675808
4437.361653
4442.204955
4422.572732
4433.493432
4439.378706
4431.794690
4448.476555
4437.853601
4432.582737
4420.463721
4435.191253
4432.250983
4453.692595
4446.043647
4449.206305
4433.032496
4457.524626
4444.662474
4434.014589
4429.608356
4434.192802
4446.714134
4425.279971
4424.015495
4418.158776
4450.939440
4411.183900
4460.080678
4445.098161
4434.433124
4416.640901
4456.239519
4408.844684
4452.642061
4446.537671
4431.733599