# vtk DataFile Version 2.0
mfree iwf
ASCII

DATASET UNSTRUCTURED_GRID
POINTS 10092 float
0.000000 0.000445 0.000000
0.000000 0.000450 0.000000
0.000000 0.000455 0.000000
0.000000 0.000460 0.000000
0.000000 0.000465 0.000000
0.000000 0.000470 0.000000
0.000000 0.000475 0.000000
0.000000 0.000480 0.000000
0.000000 0.000485 0.000000
0.000000 0.000490 0.000000
-0.000000 0.000496 0.000000
0.000002 0.000500 0.000000
0.000537 0.000828 0.000000
0.000544 0.000833 0.000000
0.000587 0.000851 0.000000
0.000593 0.000852 0.000000
0.000593 0.000852 0.000000
0.000599 0.000854 0.000000
0.000606 0.000856 0.000000
0.000603 0.000855 0.000000
0.000616 0.000860 0.000000
0.000642 0.000867 0.000000
0.000649 0.000867 0.000000
0.000653 0.000866 0.000000
0.000658 0.000866 0.000000
0.000663 0.000865 0.000000
0.000668 0.000865 0.000000
0.000673 0.000864 0.000000
0.000677 0.000864 0.000000
0.000684 0.000863 0.000000
0.000690 0.000863 0.000000
0.000715 0.000863 0.000000
0.000005 0.000445 0.000000
0.000005 0.000450 0.000000
0.000005 0.000455 0.000000
0.000005 0.000460 0.000000
0.000005 0.000465 0.000000
0.000005 0.000470 0.000000
0.000005 0.000475 0.000000
0.000005 0.000480 0.000000
0.000005 0.000485 0.000000
0.000006 0.000490 0.000000
0.000004 0.000496 0.000000
0.000006 0.000499 0.000000
0.000582 0.000848 0.000000
0.000594 0.000845 0.000000
0.000623 0.000860 0.000000
0.000629 0.000862 0.000000
0.000634 0.000863 0.000000
0.000638 0.000863 0.000000
0.000641 0.000863 0.000000
0.000646 0.000862 0.000000
0.000651 0.000861 0.000000
0.000657 0.000861 0.000000
0.000664 0.000860 0.000000
0.000670 0.000860 0.000000
0.000677 0.000858 0.000000
0.000685 0.000859 0.000000
0.000689 0.000858 0.000000
0.000695 0.000857 0.000000
0.000705 0.000861 0.000000
0.000708 0.000861 0.000000
0.000702 0.000861 0.000000
0.000713 0.000861 0.000000
0.000010 0.000445 0.000000
0.000010 0.000450 0.000000
0.000010 0.000455 0.000000
0.000010 0.000460 0.000000
0.000010 0.000465 0.000000
0.000011 0.000470 0.000000
0.000010 0.000475 0.000000
0.000011 0.000479 0.000000
0.000009 0.000486 0.000000
0.000012 0.000490 0.000000
0.000009 0.000497 0.000000
0.000011 0.000498 0.000000
0.000586 0.000845 0.000000
0.000597 0.000845 0.000000
0.000611 0.000853 0.000000
0.000617 0.000856 0.000000
0.000621 0.000858 0.000000
0.000626 0.000859 0.000000
0.000625 0.000852 0.000000
0.000633 0.000855 0.000000
0.000637 0.000855 0.000000
0.000644 0.000858 0.000000
0.000652 0.000858 0.000000
0.000658 0.000858 0.000000
0.000661 0.000855 0.000000
0.000666 0.000852 0.000000
0.000673 0.000856 0.000000
0.000682 0.000857 0.000000
0.000698 0.000857 0.000000
0.000701 0.000858 0.000000
0.000709 0.000857 0.000000
0.000714 0.000853 0.000000
0.000015 0.000445 0.000000
0.000015 0.000450 0.000000
0.000015 0.000455 0.000000
0.000015 0.000460 0.000000
0.000015 0.000465 0.000000
0.000016 0.000470 0.000000
0.000014 0.000476 0.000000
0.000016 0.000480 0.000000
0.000014 0.000485 0.000000
0.000016 0.000489 0.000000
0.000014 0.000495 0.000000
0.000017 0.000497 0.000000
0.000025 0.000500 0.000000
0.000600 0.000848 0.000000
0.000613 0.000853 0.000000
0.000615 0.000849 0.000000
0.000627 0.000853 0.000000
0.000632 0.000860 0.000000
0.000641 0.000855 0.000000
0.000645 0.000852 0.000000
0.000648 0.000848 0.000000
0.000654 0.000854 0.000000
0.000668 0.000846 0.000000
0.000666 0.000857 0.000000
0.000676 0.000850 0.000000
0.000679 0.000854 0.000000
0.000684 0.000852 0.000000
0.000688 0.000853 0.000000
0.000693 0.000852 0.000000
0.000700 0.000852 0.000000
0.000704 0.000852 0.000000
0.000714 0.000850 0.000000
0.000020 0.000445 0.000000
0.000021 0.000450 0.000000
0.000019 0.000455 0.000000
0.000021 0.000459 0.000000
0.000019 0.000466 0.000000
0.000023 0.000468 0.000000
0.000019 0.000474 0.000000
0.000022 0.000479 0.000000
0.000019 0.000486 0.000000
0.000021 0.000491 0.000000
0.000021 0.000497 0.000000
0.000022 0.000499 0.000000
0.000039 0.000500 0.000000
0.000604 0.000839 0.000000
0.000606 0.000845 0.000000
0.000613 0.000844 0.000000
0.000618 0.000852 0.000000
0.000628 0.000847 0.000000
0.000636 0.000844 0.000000
0.000648 0.000854 0.000000
0.000639 0.000848 0.000000
0.000656 0.000844 0.000000
0.000661 0.000841 0.000000
0.000667 0.000841 0.000000
0.000672 0.000847 0.000000
0.000680 0.000848 0.000000
0.000685 0.000846 0.000000
0.000695 0.000846 0.000000
0.000696 0.000847 0.000000
0.000706 0.000847 0.000000
0.000709 0.000851 0.000000
0.000714 0.000846 0.000000
0.000025 0.000445 0.000000
0.000026 0.000450 0.000000
0.000025 0.000455 0.000000
0.000026 0.000461 0.000000
0.000023 0.000465 0.000000
0.000026 0.000472 0.000000
0.000023 0.000476 0.000000
0.000027 0.000481 0.000000
0.000024 0.000485 0.000000
0.000026 0.000488 0.000000
0.000026 0.000492 0.000000
0.000027 0.000500 0.000000
0.000562 0.000841 0.000000
0.000604 0.000847 0.000000
0.000607 0.000849 0.000000
0.000622 0.000848 0.000000
0.000624 0.000844 0.000000
0.000635 0.000851 0.000000
0.000643 0.000846 0.000000
0.000633 0.000847 0.000000
0.000647 0.000841 0.000000
0.000653 0.000849 0.000000
0.000662 0.000850 0.000000
0.000658 0.000849 0.000000
0.000671 0.000852 0.000000
0.000675 0.000844 0.000000
0.000690 0.000848 0.000000
0.000687 0.000842 0.000000
0.000702 0.000846 0.000000
0.000696 0.000841 0.000000
0.000708 0.000843 0.000000
0.000713 0.000840 0.000000
0.000030 0.000445 0.000000
0.000030 0.000450 0.000000
0.000030 0.000456 0.000000
0.000030 0.000460 0.000000
0.000032 0.000464 0.000000
0.000028 0.000469 0.000000
0.000032 0.000472 0.000000
0.000030 0.000477 0.000000
0.000031 0.000486 0.000000
0.000031 0.000492 0.000000
0.000033 0.000497 0.000000
0.000031 0.000499 0.000000
0.000049 0.000500 0.000000
0.000595 0.000838 0.000000
0.000614 0.000840 0.000000
0.000620 0.000844 0.000000
0.000620 0.000840 0.000000
0.000630 0.000842 0.000000
0.000641 0.000839 0.000000
0.000652 0.000845 0.000000
0.000644 0.000842 0.000000
0.000655 0.000840 0.000000
0.000663 0.000845 0.000000
0.000678 0.000839 0.000000
0.000672 0.000841 0.000000
0.000680 0.000843 0.000000
0.000684 0.000837 0.000000
0.000689 0.000841 0.000000
0.000698 0.000837 0.000000
0.000702 0.000841 0.000000
0.000707 0.000839 0.000000
0.000713 0.000836 0.000000
0.000035 0.000445 0.000000
0.000035 0.000450 0.000000
0.000034 0.000456 0.000000
0.000039 0.000455 0.000000
0.000034 0.000467 0.000000
0.000037 0.000473 0.000000
0.000032 0.000479 0.000000
0.000042 0.000479 0.000000
0.000035 0.000483 0.000000
0.000034 0.000488 0.000000
0.000038 0.000491 0.000000
0.000036 0.000498 0.000000
0.000527 0.000819 0.000000
0.000559 0.000840 0.000000
0.000607 0.000837 0.000000
0.000617 0.000836 0.000000
0.000630 0.000837 0.000000
0.000628 0.000832 0.000000
0.000635 0.000840 0.000000
0.000641 0.000834 0.000000
0.000651 0.000837 0.000000
0.000651 0.000832 0.000000
0.000660 0.000831 0.000000
0.000669 0.000837 0.000000
0.000673 0.000835 0.000000
0.000684 0.000832 0.000000
0.000692 0.000837 0.000000
0.000692 0.000827 0.000000
0.000699 0.000836 0.000000
0.000703 0.000833 0.000000
0.000708 0.000834 0.000000
0.000712 0.000831 0.000000
0.000040 0.000445 0.000000
0.000041 0.000450 0.000000
0.000036 0.000462 0.000000
0.000040 0.000458 0.000000
0.000041 0.000463 0.000000
0.000040 0.000468 0.000000
0.000041 0.000472 0.000000
0.000037 0.000477 0.000000
0.000041 0.000488 0.000000
0.000042 0.000491 0.000000
0.000041 0.000497 0.000000
0.000045 0.000498 0.000000
0.000449 0.000682 0.000000
0.000589 0.000843 0.000000
0.000600 0.000836 0.000000
0.000615 0.000829 0.000000
0.000625 0.000838 0.000000
0.000637 0.000836 0.000000
0.000632 0.000833 0.000000
0.000646 0.000836 0.000000
0.000657 0.000835 0.000000
0.000662 0.000837 0.000000
0.000655 0.000830 0.000000
0.000669 0.000830 0.000000
0.000673 0.000829 0.000000
0.000682 0.000828 0.000000
0.000679 0.000835 0.000000
0.000688 0.000834 0.000000
0.000693 0.000832 0.000000
0.000700 0.000829 0.000000
0.000707 0.000829 0.000000
0.000712 0.000826 0.000000
0.000044 0.000445 0.000000
0.000047 0.000450 0.000000
0.000044 0.000454 0.000000
0.000046 0.000461 0.000000
0.000044 0.000467 0.000000
0.000046 0.000474 0.000000
0.000046 0.000479 0.000000
0.000040 0.000483 0.000000
0.000052 0.000486 0.000000
0.000045 0.000483 0.000000
0.000048 0.000493 0.000000
0.000050 0.000498 0.000000
0.000450 0.000691 0.000000
0.000580 0.000847 0.000000
0.000610 0.000842 0.000000
0.000622 0.000834 0.000000
0.000622 0.000830 0.000000
0.000637 0.000831 0.000000
0.000642 0.000828 0.000000
0.000647 0.000830 0.000000
0.000653 0.000826 0.000000
0.000663 0.000827 0.000000
0.000665 0.000832 0.000000
0.000677 0.000831 0.000000
0.000668 0.000826 0.000000
0.000680 0.000823 0.000000
0.000688 0.000828 0.000000
0.000696 0.000826 0.000000
0.000697 0.000823 0.000000
0.000702 0.000825 0.000000
0.000706 0.000824 0.000000
0.000711 0.000822 0.000000
0.000049 0.000445 0.000000
0.000052 0.000450 0.000000
0.000048 0.000456 0.000000
0.000053 0.000458 0.000000
0.000048 0.000464 0.000000
0.000050 0.000472 0.000000
0.000051 0.000467 0.000000
0.000051 0.000477 0.000000
0.000047 0.000488 0.000000
0.000052 0.000491 0.000000
0.000058 0.000492 0.000000
0.000053 0.000498 0.000000
0.000488 0.000776 0.000000
0.000575 0.000839 0.000000
0.000589 0.000840 0.000000
0.000613 0.000832 0.000000
0.000625 0.000827 0.000000
0.000631 0.000828 0.000000
0.000634 0.000825 0.000000
0.000638 0.000825 0.000000
0.000651 0.000821 0.000000
0.000648 0.000826 0.000000
0.000657 0.000821 0.000000
0.000667 0.000822 0.000000
0.000673 0.000823 0.000000
0.000676 0.000826 0.000000
0.000685 0.000824 0.000000
0.000690 0.000818 0.000000
0.000688 0.000821 0.000000
0.000700 0.000820 0.000000
0.000706 0.000819 0.000000
0.000711 0.000817 0.000000
0.000054 0.000445 0.000000
0.000057 0.000450 0.000000
0.000054 0.000454 0.000000
0.000054 0.000463 0.000000
0.000057 0.000467 0.000000
0.000054 0.000472 0.000000
0.000057 0.000477 0.000000
0.000057 0.000480 0.000000
0.000052 0.000483 0.000000
0.000057 0.000486 0.000000
0.000056 0.000497 0.000000
0.000059 0.000496 0.000000
0.000503 0.000793 0.000000
0.000578 0.000847 0.000000
0.000582 0.000841 0.000000
[...]
POINT_DATA 10092
SCALARS density float 1
LOOKUP_TABLE default
4428.057156
4429.202861
4428.579953
4425.306743
4431.426306
4429.803104
4430.079769
4430.220548
4439.204896
4423.065802
4430.787604
4400.939212
4418.884127
4436.353170
4429.412689
4432.801420
4441.317793
4440.327992
4448.233039
4443.133678
4432.811485
4425.107091
4407.475852
4441.099657
4430.035187
4420.644806
4447.939298
4432.087547
4422.556479
4450.782928
4424.847234
4425.732240
4429.877162
4430.622597
4428.905803
4432.380108
4432.334214
4422.339377
4432.011719
4423.298067
4406.732901
4415.392515
4456.114784
4408.218213
4418.354606
4426.883587
4415.160726
4409.306643
4424.316525
4420.303556
4435.304862
4445.945630
4430.304484
4405.572827
4427.138682
4404.909983
4429.339911
4402.121440
4420.269579
4464.406060
4403.025925
4425.065055
4397.251930
4407.827804
4429.533840
4432.690398
4426.627468
4430.276292
4418.773186
4417.807461
4454.241666
4390.645412
4486.883234
4375.099324
4454.529645
4396.522937
4437.711158
4438.272168
4428.379740
4389.477845
4420.553509
4408.079315
4467.151112
4421.724451
4422.729585
4431.496661
4422.920581
4460.221089
4410.040342
4439.162500
4438.005613
4414.835446
4449.224743
4441.717364
4472.818473
4416.300376
4427.467942
4433.617681
4443.708429
4418.019351
4448.389293
4408.250467
4465.501922
4376.163926
4475.805297
4376.509830
4524.405274
4402.704906
4437.954098
4391.712559
4434.093798
4419.737260
4458.934383
4450.928789
4399.500864
4453.438634
4423.974533
4434.104347
4406.313814
4431.094259
4432.741373
4431.736001
4447.629778
4470.961006
4405.639848
4335.720913
4499.440192
4461.554553
4433.735227
4434.243860
4444.537971
4429.907712
4439.181198
4419.466985
4423.292433
4448.979587
4474.478377
4366.205017
4475.571721
4437.464705
4419.208892
4419.583721
4435.945143
4423.069813
4498.507239
4404.340811
4438.522295
4417.288411
4469.563219
4423.622127
4427.229207
4431.104294
4448.754737
4425.682971
4428.739399
4471.170593
4484.804658
4452.410007
4333.594919
4414.225758
4427.831476
4426.563963
4435.771436
4423.075690
4435.850689
4420.097334
4472.690126
4341.880289
4442.824015
4473.880436
4398.910453
4429.801601
4435.124399
4431.509573
4401.767236
4376.293061
4472.077771
4405.240794
4384.037173
4431.027161
4426.887850
4444.346024
4454.115062
4411.896257
4426.885221
4445.108237
4365.518417
4466.411111
4440.999845
4367.199561
4459.009819
4414.756463
4425.492890
4426.363856
4428.397606
4425.168022
4436.124202
4443.970351
4402.999605
4468.770808
4441.570079
4419.862930
4458.322542
4424.482578
4419.866210
4420.840265
4439.807188
4441.921514
4418.025079
4436.306067
4400.965082
4439.506994
4465.774873
4454.403298
4420.319318
4434.738081
4422.210890
4403.225357
4400.882060
4432.803472
4470.411856
4364.852164
4431.170161
4442.098024
4430.571550
4419.732507
4441.984554
4435.516054
4439.306707
4424.242632
4453.137122
4420.892123
4412.602409
4425.825019
4407.656573
4444.259924
4425.927092
4423.471404
4442.289230
4420.348923
4431.609830
4460.647796
4425.528175
4440.818481
4398.476792
4440.431805
4438.165672
4451.813673
4402.231274
4421.829650
4422.166609
4440.158718
4490.874344
4413.743070
4409.036739
4416.034557
4432.179109
4431.744276
4423.458914
4448.591061
4417.781404
4436.754075
4446.920709
4415.363045
4452.870974
4427.893562
4438.555241
4425.931320
4433.289746
4424.709018
4390.165399
4448.276383
4401.503871
4450.408368
4429.874301
4442.086168
4435.257049
4406.474743
4440.826619
4424.537681
4435.856374
4408.331569
4460.063770
4430.703844
4418.377118
4377.999114
4453.443992
4424.623919
4437.665316
4417.323592
4416.592669
4431.333848
4405.152515
4430.410840
4450.699951
4427.870396
4446.577930
4411.169941
4467.493237
4436.681866
4436.118884
4431.940164
4419.417356
4460.047119
4404.363318
4420.826016
4417.287554
4442.007949
4422.991063
4430.712661
4433.704613
4428.304430
4425.245963
4441.312066
4445.578086
4471.896180
4441.227527
4446.962313
4418.443412
4427.810020
4427.547319
4423.591008
4428.049587
4401.671397
4441.366217
4428.771413
4439.620297
4390.903811
4390.296892
4415.429994
4510.963381
4413.859154
4441.617010
4434.882092
4419.892745
4453.169223
4457.416891
4401.358211
4443.928424
4430.592053
4431.545005
4432.504823
4453.772544
4449.409747
4411.955097
4437.808385
4436.716403
4467.681213
4406.557174
4409.423551
4422.416082
4435.490523
4435.249556
4428.159474
4444.824204
4415.542610
4405.386475
4455.299658
4424.706113
4439.762444
4468.383529
4365.469970
4420.464317
4403.109471
4427.213706
4420.689598
4460.089141
4410.300840
4465.473461
4411.088091
4389.687173
4446.486874
4406.192071
4438.170955
4424.844315
4423.753743
4422.893018
4421.834762
4448.294922
4403.573777
4451.701718
4449.532255
4428.509177
4420.319702
4429.176275
4440.702586
4420.860561
4409.991404
4452.620493
4442.144942
4417.272691
4410.454756
4470.937159
4420.577501
4442.849769
4434.518882
4410.180358
4435.110660
4461.670351
4387.400093
4375.793162
4454.870521
4432.667093
4443.995432
4434.821557
4414.042461
4458.408833
4435.530897
4389.848968
4435.017512
4435.899164
4416.462729
4411.536811
4411.569202
4430.573651
4433.126801
4436.581518
4417.461638
4446.038885
4388.970019
4450.228640
4431.252202
4444.242562
4410.861657
4455.842309
4361.495264
4466.491011
4425.344986
4419.964914
4426.603109
4431.827114
4429.724280
4438.472636
4398.497293
4432.970925
4424.856657
4383.243215
4430.367486
4462.437349
4431.010399
4433.904242
4418.950310
4447.616832
4438.780916
4418.066326
4448.319782
4427.610287
4425.685691
4431.887254
4411.002866
4432.316801
4445.700229
4465.844113
4453.182187
4431.928612
4429.608257
4384.343642
4416.390077
4433.532517
4451.137979
4427.297284
4416.087893
4437.435997
4490.393424
4457.276141
4444.328327
4452.513351
4450.963220
4349.207191
4446.474184
4432.022653
4432.164874
4427.008163
4422.938330
4439.960806
4400.862244
4426.227553
4408.011438
4433.981906
4431.731771
4433.912001
4417.898514
4440.770434
4393.948269
4395.825013
4432.373780
4450.124816
4423.050290
4485.927769
4354.268845
4412.171587
4452.853486
4430.540712
4413.820881
4430.610345
4383.532450
4449.519616
4452.250792
4405.605610
4454.824925
4438.412262
4408.556637
4443.577179
4446.438058
4415.744986
4440.214317
4424.858686
4435.146775
4424.504633
4439.034623
4427.094342
4422.450620
4405.894821
4428.022683
4452.463699
4447.898414
4410.524290
4415.313409
4447.535221
4456.691634
4427.993948
4518.536544
4398.238561
4426.613722
4427.818917
4425.727962
4442.132087
4433.125583
4456.813058
4413.678986
4427.384113
4430.547778
4428.595733
4455.885741
4447.548910
4416.591740
4432.070284
4425.098035
4411.530249
4458.674672
4406.645788
4448.995574
4417.138228
4443.685295
4440.331317
4410.909665
4420.537691
4449.141978
4448.595540
4442.973978
4414.353371
4451.005413
4378.530955
4375.426545
4441.913445
4474.654406
4430.977310
4436.958042
4445.034874
4429.828557
4362.270774
4396.258134
4470.468902
4478.990822
4412.586461
4469.352985
4410.570892
4442.191480
4411.265243
4448.862686
4419.846706
4416.001039
4438.968490
4452.122903
4408.765861
4431.938027
4420.100472
4424.278221
4411.743058
4418.608334
4390.946964
4434.454140
4444.556261
4471.049252
4448.687364
4417.308817
4420.556950
4429.743341
4418.202159
4418.264101
4429.372266
4426.379998
4421.243071
4389.170624
4459.762139
4415.052282
4400.782538
4448.736580
4423.104720
4422.057416
4438.020464
4446.946981
4434.949016
4446.274536
4429.537783
4424.393244
4426.979465
4424.156005
4447.747366
4441.853952
4467.765691
4432.009440
4423.493469
4406.774007
4413.083272
4389.070665
4462.647679
4417.299176
4430.017115
4434.226966
4424.606838
4438.877733
4445.043844
4444.637707
4402.278655
4447.666050
4434.831327
4419.154860
4497.004432
4418.460785
4421.960923
4428.426738
4431.957219
4432.703106
4425.299637
4413.173879
4427.094392
4428.707037
4441.981059
4436.092685
4419.172379
4424.103068
4402.877762
4427.390626
4448.381322
4447.139985
4396.240571
4416.460824
4441.308838
4472.285981
4398.931993
4509.648632
4428.743921
4426.937385
4417.520959
4455.722248
4441.167057
4425.233389
4480.402254
4447.094654
4423.660922
4462.553143
4465.247580
4408.321754
4459.543189
4424.560765
4438.437279
4442.953763
4452.198926
4434.625042
4408.962634
4430.626434
4438.159016
4428.078299
4433.918256
4407.626239
4443.888166
4433.136571
4382.362773
4431.642587
4459.680094
4378.504037
4430.856698
4431.586506
4426.307540
4431.803458
4422.874500
4427.493798
4455.460570
4409.064775
4443.451926
4461.041337
4413.577355
4340.729318
4440.278078
4436.603910
4469.253602
4424.071328
4429.565056
4423.062579
4424.721165
4410.701445
4440.920207
4438.463629
4432.633565
4443.348458
4422.859299
4423.357495
4403.682858
4437.706906
4454.371676
4422.919979
4447.919842
4397.949826
4402.955888
4463.507956
4428.656809
4442.200346
4422.110880
4445.633625
4468.195049
4438.470229
4425.891705
4423.047064
4422.473193
4376.695961
4380.434101
4446.168801
4407.645509
4409.269565
4421.298298
4441.219977
4444.137150
4431.142486
4412.060460
4428.691224
4430.440954
4410.973977
4436.402551
4430.578967
4440.083775
4422.424548
4413.390194
4434.058825
4460.563016
4442.039645
4421.050044
4427.480910
4422.317728
4436.921345
4408.807754
4374.907667
4419.500860
4453.743622
4458.245201
4451.250235
4400.978101
4434.320844
4449.130427
4427.130623
4461.837654
4445.820922
4439.598550
4428.971188
4426.198829
4413.937071
4449.295649
4419.151619
4423.379147
4429.495016
4429.182543
4429.458568
4429.660034
4429.667546
4429.945868
4430.049429
4430.574381
4430.948321
4431.432990
4431.438113
4431.249847
4430.966869
4430.187887
4425.513693
4429.028761
4428.976841
4429.688928
4430.132252
4430.588045
4430.900256
4430.873218
4430.612016
4429.720227
4429.383972
4429.307216
4430.006714
4430.633567
4430.350658
4427.024625
4428.765261
4428.586347
4428.828900
4429.090419
4428.733773
4429.160891
4429.151674
4430.055671
4431.082342
4431.952168
4431.824528
4431.082406
4430.236902
4429.211319
4427.757834
4428.853007
4429.102250
4429.326933
4429.987422
4430.270761
4430.710655
4430.548041
4430.228330
4428.986700
4428.277166
4428.180473
4428.480722
4429.194778
4430.218300
4428.453244
4428.866665
4428.826157
4428.783625
4428.791277
4428.464034
4428.720979
4428.598825
4429.665696
4430.373817
4431.819633
4430.942928
4431.164113
4428.500562
4428.318993
4428.581832
4428.977087
4429.289286
4429.063545
4430.067379
4429.802730
4430.678792
4430.035565
4430.030324
4428.407344
4427.921480
4427.350238
4428.355423
4428.046952
4430.224536
4428.625296
4428.844259
4429.057608
4428.578383
4428.769923
4428.177845
4428.505068
4428.231995
4429.355344
4430.059874
4431.397927
4430.887652
4429.984818
4428.275121
4427.483975
4428.751532
4429.039032
4429.224235
4429.055433
4429.856049
4429.645324
4430.451708
4429.767389
4429.826589
4428.059689
4427.983590
4426.890026
4428.874331
4427.960926
4428.596382
4428.486669
4428.846125
4429.019196
4428.343645
4428.774757
4427.852074
4428.413113
4427.822126
4429.231310
4429.772897
4431.354611
4431.229389
4430.988523
4428.611398
4431.962394
4428.701697
4429.051349
4429.030479
4429.131911
4429.458629
4429.714431
4429.928756
4429.832041
4429.278811
4428.124620
4427.740007
4426.963309
4429.670777
4429.552201
4429.730271
4428.298472
4429.024861
4428.577075
4428.530103
4428.244442
4427.949556
4427.828777
4427.718524
4428.719379
4429.709137
4430.715656
4431.529335
4429.790036
4430.430249
4429.835425
4428.366463
4429.048454
4428.796768
4428.938334
4429.285135
4429.381850
4429.618957
4429.621272
4428.929848
4427.917892
4427.212002
4426.688089
4428.415233
4429.139097
4428.836237
4428.341003
4428.823398
4428.518146
4428.466480
4427.878579
4427.873151
4427.483120
4427.489457
4428.266160
4429.327529
4430.305352
4430.744121
4429.965783
4428.739994
4431.322116
4421.960357
4403.565699
4437.090834
4433.486916
4409.860172
4457.045621
4432.224278
4426.842022
4386.200765
4446.859740
4427.171805
4399.445770
4420.228823
4450.412718
4429.634130
4426.927639
4428.251803
4428.835147
4428.722470
4428.552242
4429.212422
4428.957629
4429.488130
4429.204782
4428.762013
4427.115017
4426.935857
4425.895978
4427.681118
4427.717720
4430.131979
4443.781801
4397.221120
4436.088622
4421.070703
4411.803512
4441.306470
4433.377481
4349.540291
4417.525809
4458.137567
4434.111993
4451.681663
4399.522073
4466.715378
4407.597917
4391.293344
4427.757196
4428.550603
4428.483240
4427.926510
4428.017040
4427.098735
4427.614881
4426.633712
4427.909437
4428.589292
4429.774595
4429.553287
4429.039696
4427.539826
4428.646943
4441.668881
4448.053413
4413.163046
4448.558247
4410.593081
4446.224944
4416.134228
4410.282387
4416.371964
4431.732948
4407.909203
4448.160564
4399.726501
4412.089541
4471.065720
4438.754224
4427.940287
4428.558001
4428.549614
4428.254340
4428.796393
4428.661080
4429.009380
4428.813330
4428.398997
4426.392713
4426.492331
4425.017747
4426.690205
4425.401412
4428.386322
4422.745040
4401.617521
4423.660333
4391.098434
4406.557861
4447.750738
4431.436783
4442.711464
4440.218709
4424.895743
4423.238524
4444.386132
4381.974837
4390.121888
4433.826536
4444.479188
4427.436436
4428.443518
4428.237688
4427.545435
4427.833247
4426.731636
4427.308674
4426.381051
4427.250855
4428.434268
4428.893443
4428.722226
4427.770587
4424.892959
4424.366936
4432.523466
4448.490221
4435.199382
4463.841537
4444.081611
4431.202336
4442.850825
4420.616547
4420.742128
4433.568115
4450.123227
4421.515975
4405.430164
4438.708671
4432.503768
4421.306706
4427.488461
4428.542896
4428.047586
4428.377395
4428.184943
4428.639758
4428.659276
4428.637806
4428.197097
4425.921133
4426.072500
4424.729537
4425.515170
4425.124259
4424.065460
4405.913720
4403.127675
4432.700826
4417.057559
4471.681991
4394.090743
4443.114721
4434.619384
4449.023228
4401.928420
4365.290458
4434.161105
4422.935438
4444.213341
4437.116554
4417.223087
4427.508328
4428.240123
4428.169091
4427.371957
4427.614172
4426.938145
4426.927123
4426.527947
4426.692101
4428.449451
4428.190905
4428.718117
4426.463261
4425.472294
4425.574527
4454.987075
4428.349925
4444.172310
4415.015254
4366.274532
4433.993765
4425.647946
4430.901615
4432.649908
4421.805386
4429.152159
4461.288504
4431.177114
4391.904764
4482.089047
4400.724522
4427.199622
4428.325904
4428.047690
4427.987710
4428.379438
4428.168707
4428.676850
4428.387541
4428.049924
4425.767495
4426.209133
4424.498235
4426.325212
4425.989583
4425.827360
4447.985611
4427.781685
4449.321954
4422.998773
4409.847558
4468.669284
4409.392290
4414.455435
4424.637171
4427.091170
4450.976793
4392.919561
4438.438878
4443.503463
4417.996277
4448.817943
4427.172714
4428.110551
4427.980586
4427.371611
4427.520292
4426.651091
4427.306589
4425.650551
4427.177327
4427.588894
4428.627254
4428.628366
4427.593842
4426.422627
4427.909046
4426.440383
4438.863452
4405.693703
4421.368115
4430.662737
4437.036202
4435.832673
4424.147221
4398.975400
4451.880861
4404.240579
4364.577473
4431.181504
4450.621747
4424.803718
4398.937728
4427.134148
4427.993463
4428.311700
4427.323476
4428.636780
4427.690746
4428.328086
4428.382807
4427.530435
4425.670578
4426.475009
4424.434210
4427.473973
4426.400882
4428.944121
4444.628546
4438.859991
4447.179664
4449.933929
4380.349935
4413.750254
4437.371144
4438.362289
4401.510984
4442.017894
4425.243715
4438.969991
4370.776170
4482.324006
4457.512874
4441.329159
4427.042329
4428.074071
4427.779000
4427.474999
4427.158917
4426.395777
4427.081293
4425.152659
4426.612778
4427.468508
4428.013305
4428.684686
4427.033161
4426.088279
4427.138675
4420.648793
4437.722260
4434.730589
4424.144196
4438.250013
4432.247295
4444.640905
4476.920569
4403.735257
4430.140104
4443.793501
4442.769593
4441.934030
4376.004666
4404.459175
4384.815796
4427.209602
4428.029720
4427.948249
4427.363545
4427.907216
4427.547740
4427.805934
4427.966288
4427.717685
4425.275056
4426.585615
4424.254997
4426.255559
4425.485296
4424.365150
4427.643043
4446.619865
4409.685266
4419.110415
4394.855496
4420.839095
4445.907783
4425.898859
4463.241189
4440.290284
4437.624195
4390.124904
4415.142946
4410.700307
4423.318161
4441.122505
4426.906345
4427.805360
4428.073806
4426.545452
4427.642150
4425.803506
4427.196908
4425.504090
4426.251127
4427.766460
4427.521362
4427.838601
4425.742598
4424.988917
4424.321864
4429.613520
4428.170874
4423.353027
4396.060270
4414.187857
4446.464947
4429.395235
4434.800619
4407.354496
4433.103417
4422.896213
4461.084658
4404.347664
4423.894286
4501.959582
4458.658842
4427.114987
4428.272057
4427.358215
4428.001266
4427.249288
4428.251126
4427.714873
4428.113158
4427.919863
4425.125589
4425.895505
4424.369263
4425.624467
4424.428052
4426.839395
4443.915719
4409.125924
4415.457746
4454.403112
4428.811919
4424.866763
4420.622005
4447.643003
4396.394708
4421.822191
4452.987894
4431.910660
4411.905967
4435.019857
4422.824913
4451.601435
4426.740563
4428.093298
4427.674782
4427.112899
4427.275213
4426.752868
4426.562791
4425.923476
4425.616824
4427.075975
4427.195299
4426.844799
4425.426437
4424.694539
4423.377457
4428.404012
4398.364833
4404.275587
4425.978792
4444.679602
4443.349705
4557.333716
4443.328118
4442.358208
4432.973600
4426.551762
4412.734908
4436.939250
4430.793109
4417.470515
4407.574748
4426.971205
4427.965299
4427.859431
4427.239459
4428.282699
4427.363041
4428.071412
4427.793163
4427.706812
4425.841443
4425.716007
4424.929278
4425.248106
4425.309115
4424.996261
4410.027067
4418.035944
4446.040703
4402.754698
4354.666273
4436.621530
4527.091911
4425.937487
4428.336702
4444.644909
4422.993669
4414.764577
4443.095394
4423.008662
4419.947390
4429.115556
4427.021677
4428.211658
4427.517459
4427.939433
4426.616410
4427.506657
4426.600917
4426.293773
4426.053377
4426.927505
4427.523432
4427.017199
4425.712070
4423.929833
4426.036624
4405.076690
4423.398882
4426.966357
4456.703392
4386.533189
4432.153169
4403.199473
4451.834413
4419.936220
4446.609884
4433.657718
4388.103345
4424.724348
4445.513963
4433.339578
4426.012490
4426.894987
4428.050862
4427.582098
4426.991553
4427.864787
4426.897523
4427.733558
4427.390924
4426.898978
4425.289588
4425.838347
4423.284240
4426.194168
4424.674603
4423.151416
4439.249893
4398.428898
4449.244395
4421.697708
4377.742481
4409.098399
4440.046814
4404.345801
4456.751592
4447.404070
4411.236129
4401.189654
4457.966939
4406.965586
4477.944257
4435.040827
4426.838899
4427.483889
4428.251335
4425.950749
4427.519299
4424.944828
4426.947961
4423.886040
4425.210650
4425.922469
4426.245495
4427.589993
4423.598049
4423.291377
4425.414844
4438.305894
4440.586758
4425.672971
4460.621793
4386.417345
4438.782035
4438.818633
4433.630299
4435.089434
4421.166767
4456.916601
4444.313386
4419.961712
4441.802419
4356.156589
4404.666198
4427.056315
4428.061259
4427.161761
4427.454877
4426.592773
4427.432590
4427.242633
4427.732301
4427.920776
4426.594151
4427.309400
4424.100252
4426.317728
4423.415603
4424.194593
4424.239882
4443.131542
4416.224636
4387.736503
4421.982629
4451.809776
4796.550898
4436.918690
4449.154193
4458.551981
4388.639198
4411.662509
4382.460207
4426.785319
4341.015285
4424.469448
4426.934658
4427.764786
4427.702838
4426.535762
4427.783712
4426.413360
4427.560440
4426.149512
4427.142399
4426.523742
4428.324865
4426.153477
4424.115847
4423.485145
4424.081976
4425.088843
4432.259398
4450.652710
4428.129610
4439.484557
4427.289637
4491.995501
4439.624912
4394.365569
4416.798433
4442.118750
4402.597339
4435.632048
4413.108757
4529.338385
4420.008305
4426.861549
4427.518115
4428.338499
4426.630364
4428.298554
4426.731972
4427.771225
4426.925094
4428.117268
4425.311754
4425.176878
4424.303350
4425.679653
4423.649893
4423.887573
4432.908969
4422.266070
4429.216297
4414.440922
4464.534370
4465.227849
4471.223154
4460.366619
4453.099045
4428.594028
4452.050817
4451.573036
4438.208015
4408.651555
4340.475990
4428.973506
4427.258585
4428.381472
4427.298679
4428.291746
4426.456418
4427.142143
4425.938322
4425.761856
4424.610654
4424.476919
4425.398664
4423.384794
4423.218124
4423.110108
4424.141676
4436.599186
4433.064108
4417.150741
4429.123182
4454.516900
4405.469032
4484.928078
4399.050240
4446.413121
4402.025042
4425.001512
4469.864752
4445.279412
4379.182625
4382.201520
4409.909096