# vtk DataFile Version 2.0
mfree iwf
ASCII

DATASET UNSTRUCTURED_GRID
POINTS 8247 float
0.000001 0.000446 0.000000
0.000001 0.000451 0.000000
0.000001 0.000456 0.000000
0.000001 0.000461 0.000000
0.000001 0.000466 0.000000
0.000002 0.000471 0.000000
0.000002 0.000476 0.000000
0.000002 0.000481 0.000000
0.000002 0.000486 0.000000
0.000002 0.000490 0.000000
0.000001 0.000496 0.000000
0.000004 0.000500 0.000000
0.000058 0.000514 0.000000
0.000058 0.000526 0.000000
0.000058 0.000529 0.000000
0.000058 0.000538 0.000000
0.000058 0.000538 0.000000
0.000058 0.000545 0.000000
0.000058 0.000548 0.000000
0.000058 0.000554 0.000000
0.000058 0.000559 0.000000
0.000058 0.000563 0.000000
0.000058 0.000569 0.000000
0.000058 0.000573 0.000000
0.000058 0.000577 0.000000
0.000058 0.000583 0.000000
0.000058 0.000587 0.000000
0.000058 0.000593 0.000000
0.000058 0.000597 0.000000
0.000058 0.000603 0.000000
0.000058 0.000611 0.000000
0.000058 0.000639 0.000000
0.000006 0.000446 0.000000
0.000006 0.000450 0.000000
0.000006 0.000456 0.000000
0.000006 0.000461 0.000000
0.000006 0.000466 0.000000
0.000007 0.000471 0.000000
0.000007 0.000476 0.000000
0.000007 0.000480 0.000000
0.000007 0.000486 0.000000
0.000008 0.000490 0.000000
0.000005 0.000496 0.000000
0.000008 0.000499 0.000000
0.000061 0.000524 0.000000
0.000063 0.000530 0.000000
0.000063 0.000537 0.000000
0.000063 0.000544 0.000000
0.000063 0.000551 0.000000
0.000063 0.000555 0.000000
0.000063 0.000562 0.000000
0.000063 0.000567 0.000000
0.000063 0.000573 0.000000
0.000063 0.000579 0.000000
0.000063 0.000586 0.000000
0.000062 0.000591 0.000000
0.000063 0.000598 0.000000
0.000063 0.000603 0.000000
0.000061 0.000609 0.000000
0.000061 0.000613 0.000000
0.000059 0.000623 0.000000
0.000058 0.000627 0.000000
0.000058 0.000624 0.000000
0.000058 0.000634 0.000000
0.000011 0.000446 0.000000
0.000012 0.000450 0.000000
0.000011 0.000456 0.000000
0.000012 0.000460 0.000000
0.000011 0.000466 0.000000
0.000012 0.000470 0.000000
0.000011 0.000476 0.000000
0.000012 0.000480 0.000000
0.000011 0.000486 0.000000
0.000013 0.000490 0.000000
0.000011 0.000497 0.000000
0.000013 0.000498 0.000000
0.000066 0.000521 0.000000
0.000069 0.000526 0.000000
0.000066 0.000533 0.000000
0.000068 0.000539 0.000000
0.000067 0.000544 0.000000
0.000067 0.000548 0.000000
0.000069 0.000552 0.000000
0.000067 0.000559 0.000000
0.000069 0.000563 0.000000
0.000067 0.000569 0.000000
0.000069 0.000573 0.000000
0.000067 0.000580 0.000000
0.000068 0.000585 0.000000
0.000068 0.000592 0.000000
0.000066 0.000596 0.000000
0.000065 0.000606 0.000000
0.000063 0.000617 0.000000
0.000063 0.000622 0.000000
0.000061 0.000630 0.000000
0.000063 0.000637 0.000000
0.000016 0.000446 0.000000
0.000017 0.000450 0.000000
0.000015 0.000456 0.000000
0.000018 0.000460 0.000000
0.000015 0.000466 0.000000
0.000018 0.000470 0.000000
0.000016 0.000476 0.000000
0.000018 0.000480 0.000000
0.000016 0.000486 0.000000
0.000018 0.000490 0.000000
0.000016 0.000496 0.000000
0.000018 0.000498 0.000000
0.000027 0.000500 0.000000
0.000069 0.000532 0.000000
0.000071 0.000537 0.000000
0.000073 0.000543 0.000000
0.000074 0.000551 0.000000
0.000069 0.000556 0.000000
0.000075 0.000562 0.000000
0.000070 0.000568 0.000000
0.000075 0.000574 0.000000
0.000069 0.000578 0.000000
0.000074 0.000586 0.000000
0.000068 0.000588 0.000000
0.000070 0.000598 0.000000
0.000070 0.000602 0.000000
0.000069 0.000608 0.000000
0.000067 0.000613 0.000000
0.000067 0.000616 0.000000
0.000066 0.000625 0.000000
0.000066 0.000629 0.000000
0.000066 0.000636 0.000000
0.000021 0.000446 0.000000
0.000022 0.000450 0.000000
0.000020 0.000456 0.000000
0.000022 0.000460 0.000000
0.000020 0.000466 0.000000
0.000023 0.000470 0.000000
0.000020 0.000476 0.000000
0.000023 0.000480 0.000000
0.000021 0.000486 0.000000
0.000023 0.000490 0.000000
0.000022 0.000498 0.000000
0.000024 0.000499 0.000000
0.000041 0.000500 0.000000
0.000077 0.000530 0.000000
0.000078 0.000535 0.000000
0.000076 0.000541 0.000000
0.000074 0.000547 0.000000
0.000078 0.000550 0.000000
0.000075 0.000558 0.000000
0.000076 0.000564 0.000000
0.000074 0.000569 0.000000
0.000076 0.000576 0.000000
0.000075 0.000581 0.000000
0.000075 0.000590 0.000000
0.000075 0.000594 0.000000
0.000075 0.000600 0.000000
0.000073 0.000605 0.000000
0.000075 0.000616 0.000000
0.000071 0.000622 0.000000
0.000072 0.000626 0.000000
0.000070 0.000630 0.000000
0.000070 0.000636 0.000000
0.000026 0.000445 0.000000
0.000027 0.000450 0.000000
0.000025 0.000455 0.000000
0.000028 0.000460 0.000000
0.000025 0.000465 0.000000
0.000027 0.000470 0.000000
0.000026 0.000476 0.000000
0.000028 0.000480 0.000000
0.000026 0.000485 0.000000
0.000028 0.000490 0.000000
0.000028 0.000493 0.000000
0.000029 0.000500 0.000000
0.000062 0.000523 0.000000
0.000072 0.000528 0.000000
0.000076 0.000535 0.000000
0.000080 0.000543 0.000000
0.000082 0.000548 0.000000
0.000079 0.000555 0.000000
0.000082 0.000559 0.000000
0.000081 0.000566 0.000000
0.000079 0.000571 0.000000
0.000081 0.000577 0.000000
0.000078 0.000583 0.000000
0.000080 0.000588 0.000000
0.000076 0.000596 0.000000
0.000079 0.000605 0.000000
0.000075 0.000609 0.000000
0.000076 0.000613 0.000000
0.000073 0.000619 0.000000
0.000076 0.000623 0.000000
0.000075 0.000631 0.000000
0.000075 0.000636 0.000000
0.000031 0.000445 0.000000
0.000031 0.000450 0.000000
0.000031 0.000456 0.000000
0.000031 0.000460 0.000000
0.000031 0.000466 0.000000
0.000033 0.000470 0.000000
0.000030 0.000475 0.000000
0.000032 0.000479 0.000000
0.000031 0.000485 0.000000
0.000033 0.000491 0.000000
0.000035 0.000498 0.000000
0.000032 0.000499 0.000000
0.000049 0.000500 0.000000
0.000077 0.000525 0.000000
0.000085 0.000537 0.000000
0.000084 0.000542 0.000000
0.000084 0.000552 0.000000
0.000086 0.000556 0.000000
0.000084 0.000561 0.000000
0.000084 0.000569 0.000000
0.000086 0.000572 0.000000
0.000083 0.000582 0.000000
0.000085 0.000584 0.000000
0.000083 0.000594 0.000000
0.000082 0.000598 0.000000
0.000081 0.000602 0.000000
0.000082 0.000608 0.000000
0.000080 0.000615 0.000000
0.000082 0.000622 0.000000
0.000079 0.000627 0.000000
0.000080 0.000631 0.000000
0.000079 0.000637 0.000000
0.000036 0.000445 0.000000
0.000036 0.000450 0.000000
0.000037 0.000455 0.000000
0.000036 0.000460 0.000000
0.000038 0.000465 0.000000
0.000036 0.000470 0.000000
0.000036 0.000476 0.000000
0.000037 0.000481 0.000000
0.000036 0.000486 0.000000
0.000037 0.000489 0.000000
0.000039 0.000492 0.000000
0.000038 0.000499 0.000000
0.000059 0.000511 0.000000
0.000064 0.000517 0.000000
0.000084 0.000533 0.000000
0.000087 0.000543 0.000000
0.000088 0.000547 0.000000
0.000090 0.000554 0.000000
0.000088 0.000563 0.000000
0.000089 0.000566 0.000000
0.000086 0.000577 0.000000
0.000089 0.000578 0.000000
0.000084 0.000589 0.000000
0.000088 0.000590 0.000000
0.000086 0.000598 0.000000
0.000086 0.000605 0.000000
0.000084 0.000611 0.000000
0.000086 0.000615 0.000000
0.000083 0.000620 0.000000
0.000085 0.000625 0.000000
0.000085 0.000631 0.000000
0.000084 0.000637 0.000000
0.000041 0.000445 0.000000
0.000042 0.000450 0.000000
0.000040 0.000457 0.000000
0.000042 0.000459 0.000000
0.000041 0.000466 0.000000
0.000041 0.000470 0.000000
0.000044 0.000474 0.000000
0.000041 0.000479 0.000000
0.000042 0.000485 0.000000
0.000043 0.000491 0.000000
0.000044 0.000497 0.000000
0.000047 0.000498 0.000000
0.000058 0.000504 0.000000
0.000071 0.000521 0.000000
0.000089 0.000534 0.000000
0.000093 0.000542 0.000000
0.000091 0.000550 0.000000
0.000092 0.000558 0.000000
0.000093 0.000562 0.000000
0.000091 0.000570 0.000000
0.000093 0.000575 0.000000
0.000091 0.000582 0.000000
0.000092 0.000587 0.000000
0.000091 0.000594 0.000000
0.000090 0.000599 0.000000
0.000090 0.000605 0.000000
0.000090 0.000609 0.000000
0.000089 0.000616 0.000000
0.000090 0.000621 0.000000
0.000089 0.000627 0.000000
0.000089 0.000632 0.000000
0.000089 0.000637 0.000000
0.000046 0.000445 0.000000
0.000047 0.000450 0.000000
0.000046 0.000455 0.000000
0.000047 0.000460 0.000000
0.000046 0.000466 0.000000
0.000048 0.000470 0.000000
0.000046 0.000476 0.000000
0.000046 0.000482 0.000000
0.000051 0.000482 0.000000
0.000046 0.000488 0.000000
0.000050 0.000494 0.000000
0.000052 0.000498 0.000000
0.000059 0.000507 0.000000
0.000067 0.000516 0.000000
0.000082 0.000531 0.000000
0.000097 0.000544 0.000000
0.000096 0.000550 0.000000
0.000097 0.000557 0.000000
0.000096 0.000564 0.000000
0.000096 0.000570 0.000000
0.000095 0.000577 0.000000
0.000096 0.000583 0.000000
0.000095 0.000589 0.000000
0.000094 0.000595 0.000000
0.000096 0.000598 0.000000
0.000094 0.000605 0.000000
0.000095 0.000611 0.000000
0.000094 0.000616 0.000000
0.000095 0.000621 0.000000
0.000094 0.000626 0.000000
0.000094 0.000632 0.000000
0.000094 0.000637 0.000000
0.000051 0.000445 0.000000
0.000052 0.000450 0.000000
0.000050 0.000456 0.000000
0.000053 0.000460 0.000000
0.000050 0.000465 0.000000
0.000052 0.000470 0.000000
0.000051 0.000475 0.000000
0.000053 0.000480 0.000000
0.000050 0.000488 0.000000
0.000054 0.000491 0.000000
0.000057 0.000493 0.000000
0.000056 0.000500 0.000000
0.000063 0.000503 0.000000
0.000067 0.000511 0.000000
0.000080 0.000522 0.000000
0.000092 0.000539 0.000000
0.000099 0.000550 0.000000
0.000099 0.000557 0.000000
0.000101 0.000562 0.000000
0.000100 0.000569 0.000000
0.000101 0.000575 0.000000
0.000099 0.000581 0.000000
0.000100 0.000588 0.000000
0.000100 0.000592 0.000000
0.000099 0.000600 0.000000
0.000100 0.000605 0.000000
0.000098 0.000611 0.000000
0.000101 0.000614 0.000000
0.000098 0.000621 0.000000
0.000099 0.000627 0.000000
0.000099 0.000632 0.000000
0.000099 0.000637 0.000000
0.000056 0.000445 0.000000
0.000057 0.000450 0.000000
0.000056 0.000454 0.000000
0.000056 0.000460 0.000000
0.000056 0.000465 0.000000
0.000058 0.000470 0.000000
0.000056 0.000475 0.000000
0.000058 0.000480 0.000000
0.000056 0.000485 0.000000
0.000059 0.000487 0.000000
0.000058 0.000497 0.000000
0.000063 0.000498 0.000000
0.000064 0.000508 0.000000
0.000071 0.000515 0.000000
0.000075 0.000520 0.000000
[...]
POINT_DATA 8247
SCALARS density float 1
LOOKUP_TABLE default
4424.323240
4426.960444
4420.111407
4424.553514
4430.912810
4426.585384
4431.310594
4428.091779
4441.836257
4424.455387
4435.247508
4397.966350
4723.681598
4426.201828
4597.027305
4466.653481
4482.229887
4507.736389
4512.302821
4514.332679
4515.353306
4519.659241
4505.999861
4522.178884
4512.645554
4510.812596
4521.652419
4481.117146
4530.338381
4496.168565
4620.188265
4403.593671
4424.773966
4424.249263
4426.996329
4429.347237
4420.176491
4415.837067
4431.661208
4431.658581
4407.447503
4419.849747
4446.404470
4397.232955
4439.517063
4429.055314
4458.730486
4444.329968
4448.675029
4452.097296
4451.463614
4441.404309
4437.564813
4421.818779
4420.561158
4422.343566
4414.363590
4411.585074
4397.350058
4383.069457
4443.444555
4377.877139
4472.319601
4581.027805
4426.861864
4416.613848
4440.217967
4415.280698
4441.681940
4423.449232
4445.039534
4382.607125
4469.674517
4368.910134
4477.924594
4405.141503
4541.571261
4478.192200
4466.449285
4447.252969
4463.373033
4466.151282
4454.747923
4474.785099
4436.349222
4497.896316
4424.418522
4511.190898
4426.500241
4461.731834
4488.706164
4507.749393
4381.736489
4497.686166
4400.632899
4446.338320
4423.861607
4431.825232
4431.486420
4428.572836
4443.247723
4404.532590
4449.639159
4406.105901
4474.347300
4378.887796
4513.453864
4397.917451
4424.958752
4453.041747
4453.430984
4463.692925
4457.539150
4471.198987
4459.306590
4469.144143
4458.421949
4470.579603
4424.977421
4487.095748
4396.919570
4472.836800
4402.826160
4499.296999
4496.616029
4416.954553
4454.985970
4451.181817
4421.576033
4442.004742
4450.703950
4424.359377
4437.407127
4435.647999
4446.372434
4413.560809
4455.376311
4364.922284
4477.556184
4422.622028
4407.261450
4417.280292
4460.254717
4455.161538
4455.077223
4451.770331
4444.875265
4469.342061
4432.183524
4462.102178
4439.806336
4453.633917
4457.013165
4463.581955
4461.470727
4456.164195
4384.452723
4479.636807
4441.404147
4450.534208
4435.685606
4444.659650
4396.476618
4446.960151
4438.882918
4424.139703
4436.453592
4418.044852
4440.705619
4467.497250
4441.929893
4419.221351
4444.327760
4466.734225
4470.064283
4429.979784
4442.138338
4444.140838
4453.303591
4436.859452
4474.656874
4429.837783
4475.310527
4449.678613
4461.083249
4463.164081
4402.839904
4452.164861
4453.648257
4454.306005
4425.906511
4450.198503
4427.678195
4421.965761
4448.886635
4444.639614
4410.821838
4444.173298
4425.430002
4452.432062
4405.532815
4365.051811
4477.183308
4411.844616
4419.117758
4504.384591
4435.124531
4486.468188
4452.254927
4457.285106
4456.085208
4453.464076
4445.294093
4429.312904
4443.785285
4425.528593
4460.728920
4420.118941
4453.256120
4427.467001
4439.536390
4430.299832
4447.062047
4447.888629
4434.027236
4432.968944
4403.622046
4404.674640
4438.149815
4432.826100
4413.197025
4408.617969
4445.502603
4462.319332
4433.516128
4444.228772
4370.252032
4439.875233
4441.897231
4454.575476
4432.934718
4488.703080
4458.920383
4460.402735
4469.468955
4464.993142
4465.368586
4465.556463
4466.332539
4438.495437
4447.505014
4451.358263
4435.989190
4442.672849
4448.262409
4441.721829
4427.922028
4426.122049
4439.469625
4436.468466
4441.727298
4404.639016
4438.380942
4435.763923
4419.354625
4388.505155
4443.431377
4458.599308
4783.274032
4400.855244
4476.224135
4461.060601
4462.889283
4413.903422
4470.378063
4414.992278
4454.418034
4417.182144
4459.870707
4413.006765
4449.612061
4461.035456
4434.602118
4455.875444
4437.209988
4446.876286
4434.295433
4439.935354
4438.157761
4434.226733
4430.306272
4403.833750
4407.210122
4432.925661
4450.704146
4392.434277
4443.455180
4451.896917
4466.281899
4420.245535
4328.690868
4445.842680
4484.044147
4485.709755
4447.329890
4461.767706
4456.624395
4450.759918
4460.982096
4444.664562
4457.977581
4453.826364
4465.303180
4430.208183
4458.550621
4432.093448
4455.276414
4430.636062
4447.161606
4438.292890
4435.552044
4434.425829
4400.310146
4444.687476
4442.143814
4419.585198
4390.076379
4434.216177
4442.481738
4399.793789
4480.660323
4275.982589
4470.287037
4467.218261
4420.551680
4471.926871
4438.676354
4480.654968
4418.168549
4469.188454
4422.940809
4460.466093
4445.813489
4442.743893
4454.157284
4442.253175
4460.421718
4428.683128
4453.886227
4429.126649
4444.936253
4436.283877
4442.267230
4430.485150
4430.719875
4437.555683
4387.436033
4436.756122
4441.508713
4400.407447
4439.202636
4425.211088
4593.138245
4444.023097
4594.573003
4499.766017
4489.582542
4377.139956
4427.034755
4464.249441
4458.613968
4460.420973
4479.035704
4433.616521
4482.297481
4421.251164
4462.490617
4440.651100
4454.989055
4418.116622
4452.758795
4433.050535
4447.157863
4433.767693
4433.366890
4421.083857
4424.606034
4415.070517
4443.608860
4445.309395
4404.874160
4419.274400
4465.448038
4396.274019
4428.938276
4475.399699
4423.055309
4490.767290
4459.074520
4449.912551
4471.375971
4462.927924
4463.851416
4444.375392
4436.121171
4463.880318
4437.233325
4441.231840
4457.085359
4430.738049
4456.535953
4432.719178
4454.908853
4430.839710
4441.001560
4436.755070
4440.196638
4432.508102
4433.329115
4425.437530
4442.587697
4385.995628
4456.442689
4458.552576
4409.147480
4464.472671
4460.452657
4459.651375
4472.001683
4473.143686
4470.358415
4464.426141
4463.069354
4452.828081
4447.018826
4476.059679
4446.610660
4453.838771
4450.664594
4451.203939
4440.999855
4455.755179
4442.099588
4443.200744
4438.362876
4440.670181
4441.173059
4433.755538
4429.799711
4422.728942
4422.815377
4418.804535
4404.406504
4436.928144
4447.358285
4381.619361
4444.053867
4434.093050
4415.759962
4457.311674
4458.539987
4447.041954
4465.665900
4447.132095
4446.828545
4455.683341
4470.505333
4463.879338
4454.407798
4448.644327
4443.269994
4452.489914
4441.665382
4445.335801
4437.667852
4443.486468
4441.628204
4437.861796
4436.511471
4435.500981
4440.093895
4442.708719
4416.734716
4437.142999
4434.408698
4413.872259
4390.593713
4440.746631
4459.341771
4430.750540
4467.150027
4427.755522
4459.308130
4467.442558
4475.107706
4461.808558
4472.495217
4440.454442
4460.657117
4440.742650
4452.316013
4458.711782
4451.626069
4447.672731
4455.239051
4437.344956
4447.238324
4439.388000
4439.151308
4440.560753
4431.894452
4437.636965
4429.640986
4428.227055
4436.071190
4418.421964
4402.782433
4441.732803
4452.549065
4410.669099
4401.395532
4456.653280
4463.555627
4451.546518
4467.510810
4466.817472
4439.758258
4458.442070
4501.262142
4436.346731
4471.489694
4481.623277
4443.985993
4461.390064
4440.548326
4453.345968
4439.238401
4453.817598
4439.859539
4444.691897
4436.625906
4443.156410
4436.142522
4436.711338
4445.881632
4429.541863
4439.270356
4420.911505
4457.210501
4395.758384
4419.072851
4421.735556
4459.053632
4414.582381
4409.860888
4477.331463
4422.736952
4476.309796
4457.829945
4479.133637
4417.220416
4465.280555
4460.334922
4432.008158
4460.062983
4459.809545
4457.804881
4460.728505
4448.864593
4445.135126
4445.364610
4439.456125
4442.794101
4433.645597
4431.897968
4433.394523
4428.431111
4425.781827
4426.940029
4441.458852
4430.808552
4443.855513
4440.158675
4444.131508
4418.042299
4439.034917
4459.959455
4417.476659
4461.416834
4415.275877
4430.215592
4463.068920
4469.751109
4424.492772
4463.293144
4438.562070
4459.250340
4446.218269
4451.197186
4459.032831
4445.950941
4452.328846
4441.413967
4444.461211
4436.431103
4441.235052
4436.574801
4436.674020
4446.363958
4434.744939
4438.406518
4416.911309
4423.267730
4438.275159
4434.134459
4429.525311
4431.677075
4442.262928
4406.356724
4460.961686
4473.517439
4469.095920
4457.193408
4436.051561
4413.211833
4466.527712
4447.644153
4455.952410
4454.236528
4447.491901
4469.337377
4456.948879
4450.709154
4452.421785
4443.485583
4445.899528
4435.347032
4435.806741
4432.554288
4430.816298
4411.911269
4429.984705
4428.257205
4441.925623
4437.917631
4423.948843
4416.081362
4435.070298
4446.415418
4437.060091
4435.735583
4456.495690
4419.232245
4453.796767
4433.355952
4450.390888
4445.829114
4439.564426
4460.667381
4438.765400
4465.444789
4457.791799
4460.703102
4465.757769
4449.498068
4456.449093
4448.007245
4447.685676
4442.335426
4434.618067
4434.138663
4433.245636
4449.305382
4433.016473
4424.736410
4430.344473
4423.961736
4430.445715
4448.289150
4422.346026
4433.617291
4428.236973
4426.646841
4435.526455
4471.730571
4451.826517
4459.246895
4449.979786
4437.974879
4438.826659
4451.713144
4459.880246
4476.278067
4420.307388
4439.101624
4458.731637
4457.556540
4454.857412
4440.247666
4447.698382
4433.702092
4445.968750
4428.496180
4435.354143
4422.485772
4436.867267
4440.465824
4424.314584
4417.100712
4441.829825
4409.106006
4440.815668
4436.033945
4444.178668
4433.855223
4446.415600
4437.518738
4409.787197
4471.337210
4430.555071
4464.460369
4444.727007
4445.936573
4460.074000
4440.728000
4448.499489
4471.004441
4418.556816
4424.136085
4472.579939
4456.360579
4456.459817
4448.982223
4437.745986
4425.919396
4428.852451
4442.149458
4444.840708
4422.716464
4435.855425
4451.897936
4417.540458
4425.394290
4447.183223
4429.322079
4437.150265
4408.749443
4426.549242
4452.611885
4455.555886
4424.524943
4445.527398
4444.580074
4447.612737
4446.820950
4432.323106
4457.711858
4423.333369
4460.607274
4475.919090
4480.985987
4465.577988
4421.532589
4450.486819
4436.713504
4440.913971
4436.368970
4428.836084
4396.440720
4423.256807
4422.064549
4422.818791
4423.867170
4423.910365
4424.601458
4424.770056
4425.228353
4425.531300
4426.016433
4426.230883
4426.744416
4426.896174
4428.061054
4402.704874
4420.180304
4419.412523
4420.874324
4422.084050
4422.283221
4423.341821
4423.464720
4424.350342
4424.513244
4425.295384
4425.553664
4426.201010
4425.876271
4430.295792
4408.691901
4420.883757
4419.057215
4421.395044
4422.351698
4422.768649
4423.915388
4423.872348
4425.191605
4424.866916
4426.448130
4425.843067
4427.260201
4427.106971
4429.812188
4412.513225
4422.312802
4420.411478
4422.426459
4422.922136
4423.689634
4424.443907
4424.825153
4425.775739
4425.786840
4427.025800
4426.697341
4428.679473
4427.884589
4432.532705
4416.659790
4423.238235
4422.156846
4423.180146
4424.007308
4424.354845
4425.333147
4425.518494
4426.519473
4426.669806
4427.753103
4427.746056
4429.179955
4428.068097
4432.128477
4419.086853
4424.389596
4423.585071
4424.033726
4425.192891
4425.026927
4426.328463
4426.162670
4427.531657
4427.224769
4428.677297
4428.354562
4429.989695
4429.534076
4431.402278
4421.539751
4425.486141
4424.808720
4425.184633
4426.033898
4425.979066
4427.087398
4427.029012
4428.194699
4428.100518
4429.409639
4429.250303
4430.495604
4430.224658
4432.429749
4423.608779
4426.467683
4425.937874
4426.236211
4426.877505
4427.005685
4427.725092
4427.995630
4428.799073
4429.055583
4429.921233
4429.969996
4431.541903
4430.376134
4433.464433
4425.403188
4427.389900
4427.050886
4427.183083
4427.788750
4427.800848
4428.569769
4428.708845
4429.607044
4429.632796
4430.782280
4430.813024
4431.929536
4431.443967
4432.255648
4427.211134
4428.230078
4427.974511
4428.125079
4428.576794
4428.676169
4429.290276
4429.465796
4430.276733
4430.438018
4431.387282
4431.453143
4432.585745
4432.731051
4433.040531
4428.718353
4429.022071
4428.901387
4429.049854
4429.266641
4429.579451
4429.822491
4430.394151
4430.739550
4431.264955
4431.748614
4432.442790
4433.272713
4432.878307
4434.397310
4430.042481
4429.748516
4429.641095
4429.869123
4429.931144
4430.365161
4430.463786
4431.066792
4431.286308
4431.972023
4432.335358
4432.851306
4433.302295
4434.354973
4434.526195
4431.260064
4430.376173
4430.453203
4430.600608
4430.644272
4431.008483
4431.126310
4431.648393
4431.986660
4432.418238
4432.813532
4433.564473
4433.857899
4435.629069
4434.306368
4430.065189
4437.538544
4458.042452
4409.341813
4439.187683
4447.487292
4433.349300
4474.660786
4470.748721
4455.036082
4449.589879
4437.408936
4472.235895
4466.952424
4448.013383
4428.066277
4432.330499
4430.909621
4431.122546
4431.223154
4431.245713
4431.643102
4431.722207
4432.204742
4432.473220
4432.990884
4433.395778
4433.861653
4434.027051
4435.414725
4436.603804
4427.534334
4422.830524
4420.576781
4451.477727
4445.304395
4449.813473
4420.969162
4448.576833
4428.925720
4421.655647
4443.561373
4392.565850
4433.358740
4455.910563
4458.421033
4431.573545
4433.319539
4431.388297
4431.811811
4431.830284
4431.830355
4432.240149
4432.211651
4432.807592
4432.994116
4433.456863
4433.782626
4434.201163
4434.973290
4434.954863
4434.807745
4436.598488
4406.606216
4431.300534
4426.598292
4403.652267
4424.344340
4430.266634
4448.763323
4437.996800
4451.350140
4458.823202
4448.990781
4459.598204
4424.720543
4432.418654
4411.750622
4434.169972
4431.786908
4432.365990
4432.306739
4432.349415
4432.729209
4432.747152
4433.265925
4433.388313
4433.985186
4434.237157
4434.744987
4434.536183
4435.991453
4435.720077
4439.662544
4444.893055
4431.050314
4425.209552
4434.061912
4453.903393
4420.570754
4424.598688
4449.034333
4456.622797
4447.734550
4442.686090
4447.759601
4428.874698
4426.044189
4432.247213
4434.888124
4432.155258
4432.932266
4432.761343
4432.868774
4433.154351
4433.236235
4433.675199
4433.901221
4434.440572
4434.383089
4435.461413
4434.930979
4436.936453
4434.864224
4432.969803
4453.751192
4411.660826
4424.235631
4434.858090
4409.034328
4450.951006
4431.806161
4455.132751
4455.567642
4428.129401
4418.331086
4425.201084
4433.279814
4485.741718
4441.960671
4435.496416
4432.473654
4433.310216
4433.149665
4433.265150
4433.541168
4433.656180
4434.057167
4434.275157
4434.721001
4435.148645
4435.466459
4435.721007
4437.053550
4435.705662
4438.348814
4429.717132
4449.015981
4433.420307
4442.004968
4423.258104
4459.214141
4422.124182
4433.819221
4425.221947
4430.792538
4441.338278
4450.669658
4459.864234
4459.612222
4421.024400
4436.030803
4432.754330
4433.717276
4433.549831
4433.588485
4433.946589
4433.995583
4434.373970
4434.727814
4435.005335
4435.522742
4435.815586
4436.560707
4436.866417
4437.931503
4438.545574
4397.832350
4447.256916
4406.505422
4438.169317
4443.229014
4431.886835
4445.311915
4435.732904
4452.108259
4441.557472
4447.496158
4466.974840
4402.078432
4392.606615
4391.733866
4436.460236
4432.973500
4433.994446
4433.806513
4433.910063
4434.213795
4434.269746
4434.749515
4434.864297
4435.455437
4435.668631
4436.421435
4436.814806
4437.587294
4437.811300
4440.267120
4408.841633
4444.786026
4401.434754
4443.584917
4414.717578
4397.944170
4448.596979
4440.930684
4452.880937
4437.379653
4452.913795
4449.949926
4443.862565
4401.864873
4377.305382
4436.836844
4433.154335
4434.314322
4434.060824
4434.178610
4434.445982
4434.569231
4434.944515
4435.114429
4435.725699
4435.907103
4436.572800
4436.654841
4439.366604
4436.827513
4430.479584
4423.914616
4437.062090
4488.860000
4424.179502
4458.366153
4455.678325
4467.273583
4436.736859
4450.507176
4445.219011
4444.000243
4475.416715
4466.805726
4488.365612
4460.207847
4437.094989
4433.285229
4434.481721
4434.222589
4434.388050
4434.607493
4434.784912
4435.027659
4435.498118
4435.605771
4436.170199
4436.818655
4437.032814
4438.490441
4437.605103
4439.639813
4447.378433
4418.716768
4414.986720
4413.286566
4459.390584
4402.102782
4424.267933
4451.916439
4440.310794
4450.343405
4471.386000
4489.642435
4466.854959
4465.570796
4455.225290
4437.307202
4433.412093
4434.678060
4434.377205
4434.562509
4434.727542
4434.960913
4435.208372
4435.463355
4435.876938
4436.392350
4436.239523
4437.288656
4436.975047
4437.761550
4443.372034
4429.688051
4462.810393
4456.494994
4445.165414
4460.641264
4407.832658
4451.591596
4440.114338
4439.979476
4447.160482
4455.498518
4465.374894
4448.778803
4453.559056
4454.339651
4437.428712
4433.506479
4434.709052
4434.500141
4434.614062
4434.859473
4434.981458
4435.293429
4435.581937
4435.891002
4436.191039
4436.729538
4437.044325
4436.563231
4435.796756
4431.301036
4424.242220
4453.535609
4409.583111
4440.568453
4404.144331
4472.726508
4437.523056
4434.708431
4458.457180
4474.056092
4468.794964
4457.768025
4454.173913
4451.756676
4453.158448
4437.492676
4433.566412
4434.794670
4434.590559
4434.654867
4434.929004
4435.029397
4435.343035
4435.564837
4435.929203
4436.323450
4436.712567
4436.378734
4438.601993
4436.126216
4433.244397
4446.242346
4388.855443
4461.061608
4468.244191
4425.022203
4462.290745
4404.932804
4448.529860
4458.208273
4439.046083
4448.498790
4444.545411
4457.974626
4467.172983
4452.077750
4437.455260
4433.571385
4434.796659
4434.541331
4434.709777
4434.878981
4435.006821
4435.358688
4435.471068
4435.982885
4436.142310
4436.747568
4437.434447
4438.612299
4436.443487
4440.101383
4473.451008
4412.662935
4448.465770
4395.276421
4447.028185
4475.770625
4428.933550
4460.707412
4413.948845
4419.018798
4438.706782
4443.046267
4442.192039
4448.766829
4449.318853
4437.367491
4433.593101
4434.797218
4434.556197
4434.682417
4434.854579
4434.991101
4435.246769
4435.467167
4435.839446
4436.115929
4436.716905
4436.781551
4437.948142
4439.436652
4445.302959
4419.039363
4472.283589
4443.642214
4453.175876
4454.209867
4432.791058
4470.030615
4433.390230
4436.940066
4461.710068
4448.126350
4432.300915
4442.666121
4449.806676
4450.372695
4437.225340
4433.580028
4434.686985
4434.497586
4434.603929
4434.776619
4434.892419
4435.108732
4435.381666
4435.588604
4436.090481
4436.293739
4437.250595
4437.632254
4436.152010
4447.965548
4435.976307
4443.873937
4416.800308
4447.448255
4431.082613
4446.462088
4443.477468
4419.156008
4453.625466
4443.124955
4428.675917
4442.689968
4447.094623
4451.448854
4449.483633
4437.063981
4433.522394
4434.670764
4434.414348
4434.551806
4434.668759
4434.784087
4435.002856
4435.180258
4435.437718
4435.837663
4436.046519
4436.589583
4437.524351
4437.139048
4432.552637
4450.864189
4416.175135
4460.364202
4458.301501
4412.491621
4438.216535
4393.398322
4403.974623
4456.174868
4420.201286
4409.808624
4424.863899
4430.130096
4442.632512
4447.096509
4436.804890
4433.454224
4434.546539
4434.289180
4434.446862
4434.522943
4434.647458
4434.790829
4434.969760
4435.212626
4435.402899
4435.927594
4435.939813
4436.943244
4437.048189
4428.129405
4432.533842
4388.580799
4456.121613
4388.103942
4443.919621
4449.003248
4419.106714
4448.031819
4449.427167
4435.810538
4440.375036
4435.253973
4426.779635
4437.761142
4443.317094
4436.525292
4433.389600
4434.428854
4434.185379
4434.337882
4434.383839
4434.492059
4434.615473
4434.762748
4434.891720
4435.128827
4435.202295
4435.602560
4436.113391
4434.046682
4431.703340
4403.801992
4449.159485
4468.816013
4406.164391
4447.278975
4397.084563
4441.984081
4419.900325
4408.450662
4444.529939
4424.474654
4424.801596
4439.151080
4449.297518
4445.001965
4436.219859
4433.269984
4434.278670
4434.043732
4434.171677
4434.250629
4434.300120
4434.412920
4434.503226
4434.558766
4434.807745
4434.802093
4434.668328
4435.573197
4434.556425
4433.710226
4404.246376
4437.818580
4399.917696
4448.412851
4449.681110
4437.610394
4435.346294
4400.540920
4427.979625
4439.582402
4414.195627
4431.276252
4424.374834
4436.395272
4441.285733
4435.913709
4433.186876
4434.133741
4433.941871
4434.021428
4434.122064
4434.100212
4434.255782
4434.243437
4434.402710
4434.218956
4434.517408
4434.384222
4434.158216
4433.466888
4437.576311
4433.055741
4440.176119
4422.411906
4450.591702
4409.475540
4451.107715
4419.914079
4415.791631
4444.121770
4409.278274
4427.314122
4428.313216
4436.739168
4440.432965
4443.742155
4435.532563
4433.109162
4433.888613
4433.820543
4433.820659
4433.994257
4433.900920
4434.119543
4433.938039
4434.135978
4434.066739
4433.938631
4433.896492
4433.911935
4433.604359
4426.761097
4428.904258
4435.036498
4434.016097
4440.777066
4451.402347
4458.747331
4459.273032
4435.989009
4425.940728
4412.275558
4417.019046
4427.750990
4436.065345
4443.573672
4442.266076
4435.192376
4432.996359
4433.725567
4433.711803
4433.648615
4433.891547
4433.715746
4433.931673
4433.831083
4433.894893
4433.719622
4433.845856
4433.263413
4433.253898
4432.202557
4434.636444
4444.251067
4443.917574
4446.454619
4439.674966
4443.180324
4462.995778
4428.882296
4439.456332
4457.833562
4453.871603
4443.784418
4429.344492
4417.205261
4439.830306
4443.485127