# vtk DataFile Version 2.0
mfree iwf
ASCII

DATASET UNSTRUCTURED_GRID
POINTS 8097 float
0.000002 0.000446 0.000000
0.000002 0.000451 0.000000
0.000002 0.000456 0.000000
0.000002 0.000461 0.000000
0.000002 0.000466 0.000000
0.000002 0.000471 0.000000
0.000002 0.000476 0.000000
0.000002 0.000481 0.000000
0.000002 0.000486 0.000000
0.000003 0.000491 0.000000
0.000002 0.000497 0.000000
0.000004 0.000501 0.000000
0.000025 0.000507 0.000000
0.000025 0.000513 0.000000
0.000025 0.000517 0.000000
0.000025 0.000523 0.000000
0.000025 0.000527 0.000000
0.000025 0.000533 0.000000
0.000025 0.000538 0.000000
0.000025 0.000544 0.000000
0.000025 0.000548 0.000000
0.000025 0.000554 0.000000
0.000025 0.000559 0.000000
0.000025 0.000564 0.000000
0.000025 0.000569 0.000000
0.000025 0.000574 0.000000
0.000025 0.000579 0.000000
0.000025 0.000584 0.000000
0.000025 0.000589 0.000000
0.000025 0.000595 0.000000
0.000025 0.000602 0.000000
0.000025 0.000616 0.000000
0.000007 0.000446 0.000000
0.000007 0.000451 0.000000
0.000007 0.000456 0.000000
0.000007 0.000461 0.000000
0.000007 0.000466 0.000000
0.000007 0.000471 0.000000
0.000007 0.000476 0.000000
0.000007 0.000481 0.000000
0.000007 0.000486 0.000000
0.000009 0.000490 0.000000
0.000006 0.000497 0.000000
0.000008 0.000499 0.000000
0.000028 0.000509 0.000000
0.000028 0.000515 0.000000
0.000029 0.000521 0.000000
0.000029 0.000527 0.000000
0.000029 0.000533 0.000000
0.000029 0.000538 0.000000
0.000029 0.000543 0.000000
0.000029 0.000549 0.000000
0.000029 0.000554 0.000000
0.000029 0.000559 0.000000
0.000029 0.000565 0.000000
0.000029 0.000570 0.000000
0.000029 0.000576 0.000000
0.000029 0.000581 0.000000
0.000029 0.000587 0.000000
0.000029 0.000593 0.000000
0.000029 0.000599 0.000000
0.000027 0.000605 0.000000
0.000027 0.000609 0.000000
0.000025 0.000613 0.000000
0.000011 0.000446 0.000000
0.000012 0.000451 0.000000
0.000011 0.000456 0.000000
0.000012 0.000461 0.000000
0.000012 0.000466 0.000000
0.000013 0.000471 0.000000
0.000012 0.000476 0.000000
0.000013 0.000481 0.000000
0.000011 0.000486 0.000000
0.000014 0.000490 0.000000
0.000011 0.000497 0.000000
0.000014 0.000499 0.000000
0.000032 0.000511 0.000000
0.000034 0.000513 0.000000
0.000033 0.000519 0.000000
0.000034 0.000526 0.000000
0.000033 0.000530 0.000000
0.000035 0.000534 0.000000
0.000034 0.000541 0.000000
0.000035 0.000545 0.000000
0.000034 0.000551 0.000000
0.000034 0.000556 0.000000
0.000034 0.000561 0.000000
0.000034 0.000567 0.000000
0.000034 0.000572 0.000000
0.000034 0.000578 0.000000
0.000034 0.000583 0.000000
0.000033 0.000589 0.000000
0.000032 0.000595 0.000000
0.000032 0.000603 0.000000
0.000030 0.000609 0.000000
0.000031 0.000614 0.000000
0.000016 0.000446 0.000000
0.000017 0.000450 0.000000
0.000016 0.000456 0.000000
0.000018 0.000460 0.000000
0.000016 0.000466 0.000000
0.000018 0.000470 0.000000
0.000016 0.000476 0.000000
0.000018 0.000480 0.000000
0.000016 0.000486 0.000000
0.000019 0.000490 0.000000
0.000017 0.000496 0.000000
0.000019 0.000499 0.000000
0.000027 0.000501 0.000000
0.000038 0.000517 0.000000
0.000036 0.000522 0.000000
0.000039 0.000526 0.000000
0.000040 0.000534 0.000000
0.000037 0.000538 0.000000
0.000040 0.000543 0.000000
0.000037 0.000550 0.000000
0.000040 0.000554 0.000000
0.000038 0.000560 0.000000
0.000039 0.000565 0.000000
0.000038 0.000571 0.000000
0.000038 0.000577 0.000000
0.000038 0.000583 0.000000
0.000037 0.000588 0.000000
0.000038 0.000594 0.000000
0.000036 0.000599 0.000000
0.000035 0.000605 0.000000
0.000036 0.000609 0.000000
0.000036 0.000614 0.000000
0.000021 0.000446 0.000000
0.000022 0.000450 0.000000
0.000021 0.000456 0.000000
0.000022 0.000460 0.000000
0.000021 0.000466 0.000000
0.000023 0.000470 0.000000
0.000021 0.000476 0.000000
0.000023 0.000480 0.000000
0.000021 0.000486 0.000000
0.000023 0.000490 0.000000
0.000023 0.000497 0.000000
0.000024 0.000499 0.000000
0.000033 0.000504 0.000000
0.000041 0.000515 0.000000
0.000043 0.000519 0.000000
0.000043 0.000527 0.000000
0.000042 0.000532 0.000000
0.000045 0.000536 0.000000
0.000042 0.000542 0.000000
0.000044 0.000548 0.000000
0.000043 0.000552 0.000000
0.000043 0.000559 0.000000
0.000043 0.000564 0.000000
0.000042 0.000570 0.000000
0.000043 0.000575 0.000000
0.000042 0.000581 0.000000
0.000042 0.000587 0.000000
0.000041 0.000592 0.000000
0.000041 0.000599 0.000000
0.000041 0.000604 0.000000
0.000040 0.000610 0.000000
0.000040 0.000615 0.000000
0.000026 0.000445 0.000000
0.000027 0.000450 0.000000
0.000026 0.000456 0.000000
0.000027 0.000460 0.000000
0.000027 0.000465 0.000000
0.000027 0.000471 0.000000
0.000027 0.000475 0.000000
0.000028 0.000480 0.000000
0.000027 0.000486 0.000000
0.000028 0.000490 0.000000
0.000029 0.000494 0.000000
0.000031 0.000501 0.000000
0.000037 0.000507 0.000000
0.000042 0.000511 0.000000
0.000045 0.000522 0.000000
0.000047 0.000527 0.000000
0.000048 0.000532 0.000000
0.000046 0.000539 0.000000
0.000049 0.000543 0.000000
0.000048 0.000549 0.000000
0.000048 0.000555 0.000000
0.000048 0.000560 0.000000
0.000047 0.000566 0.000000
0.000047 0.000572 0.000000
0.000046 0.000578 0.000000
0.000046 0.000583 0.000000
0.000046 0.000589 0.000000
0.000046 0.000594 0.000000
0.000045 0.000599 0.000000
0.000045 0.000604 0.000000
0.000045 0.000610 0.000000
0.000045 0.000615 0.000000
0.000032 0.000445 0.000000
0.000032 0.000450 0.000000
0.000032 0.000455 0.000000
0.000032 0.000461 0.000000
0.000031 0.000466 0.000000
0.000032 0.000470 0.000000
0.000033 0.000475 0.000000
0.000031 0.000481 0.000000
0.000033 0.000485 0.000000
0.000032 0.000491 0.000000
0.000034 0.000496 0.000000
0.000036 0.000500 0.000000
0.000040 0.000506 0.000000
0.000047 0.000514 0.000000
0.000050 0.000520 0.000000
0.000052 0.000526 0.000000
0.000051 0.000533 0.000000
0.000053 0.000538 0.000000
0.000052 0.000544 0.000000
0.000052 0.000550 0.000000
0.000053 0.000555 0.000000
0.000052 0.000561 0.000000
0.000052 0.000566 0.000000
0.000051 0.000572 0.000000
0.000051 0.000577 0.000000
0.000051 0.000583 0.000000
0.000051 0.000588 0.000000
0.000050 0.000594 0.000000
0.000051 0.000599 0.000000
0.000050 0.000605 0.000000
0.000050 0.000610 0.000000
0.000050 0.000615 0.000000
0.000037 0.000445 0.000000
0.000036 0.000450 0.000000
0.000037 0.000456 0.000000
0.000036 0.000460 0.000000
0.000037 0.000465 0.000000
0.000037 0.000471 0.000000
0.000037 0.000476 0.000000
0.000037 0.000480 0.000000
0.000038 0.000485 0.000000
0.000037 0.000490 0.000000
0.000039 0.000494 0.000000
0.000040 0.000500 0.000000
0.000044 0.000506 0.000000
0.000048 0.000511 0.000000
0.000053 0.000519 0.000000
0.000055 0.000527 0.000000
0.000056 0.000532 0.000000
0.000057 0.000538 0.000000
0.000056 0.000545 0.000000
0.000057 0.000550 0.000000
0.000056 0.000556 0.000000
0.000056 0.000561 0.000000
0.000056 0.000567 0.000000
0.000056 0.000573 0.000000
0.000056 0.000578 0.000000
0.000055 0.000584 0.000000
0.000055 0.000589 0.000000
0.000055 0.000594 0.000000
0.000055 0.000600 0.000000
0.000055 0.000605 0.000000
0.000055 0.000610 0.000000
0.000055 0.000615 0.000000
0.000041 0.000445 0.000000
0.000042 0.000450 0.000000
0.000042 0.000455 0.000000
0.000042 0.000460 0.000000
0.000042 0.000466 0.000000
0.000041 0.000470 0.000000
0.000043 0.000475 0.000000
0.000043 0.000480 0.000000
0.000042 0.000486 0.000000
0.000043 0.000490 0.000000
0.000044 0.000496 0.000000
0.000046 0.000500 0.000000
0.000048 0.000505 0.000000
0.000052 0.000512 0.000000
0.000057 0.000520 0.000000
0.000059 0.000526 0.000000
0.000060 0.000533 0.000000
0.000060 0.000539 0.000000
0.000061 0.000544 0.000000
0.000061 0.000550 0.000000
0.000061 0.000556 0.000000
0.000061 0.000562 0.000000
0.000061 0.000567 0.000000
0.000060 0.000573 0.000000
0.000060 0.000578 0.000000
0.000060 0.000584 0.000000
0.000060 0.000589 0.000000
0.000060 0.000594 0.000000
0.000060 0.000600 0.000000
0.000060 0.000605 0.000000
0.000060 0.000610 0.000000
0.000059 0.000615 0.000000
0.000046 0.000445 0.000000
0.000047 0.000450 0.000000
0.000046 0.000455 0.000000
0.000047 0.000460 0.000000
0.000046 0.000465 0.000000
0.000047 0.000470 0.000000
0.000047 0.000476 0.000000
0.000047 0.000480 0.000000
0.000048 0.000484 0.000000
0.000048 0.000490 0.000000
0.000049 0.000495 0.000000
0.000051 0.000499 0.000000
0.000053 0.000506 0.000000
0.000055 0.000512 0.000000
0.000059 0.000518 0.000000
0.000062 0.000526 0.000000
0.000064 0.000532 0.000000
0.000065 0.000538 0.000000
0.000065 0.000545 0.000000
0.000065 0.000551 0.000000
0.000065 0.000556 0.000000
0.000065 0.000562 0.000000
0.000065 0.000568 0.000000
0.000065 0.000573 0.000000
0.000065 0.000579 0.000000
0.000065 0.000584 0.000000
0.000065 0.000589 0.000000
0.000064 0.000595 0.000000
0.000064 0.000600 0.000000
0.000064 0.000605 0.000000
0.000064 0.000610 0.000000
0.000064 0.000615 0.000000
0.000051 0.000445 0.000000
0.000052 0.000450 0.000000
0.000052 0.000456 0.000000
0.000052 0.000460 0.000000
0.000052 0.000465 0.000000
0.000052 0.000470 0.000000
0.000052 0.000475 0.000000
0.000053 0.000480 0.000000
0.000053 0.000486 0.000000
0.000052 0.000490 0.000000
0.000055 0.000494 0.000000
0.000054 0.000501 0.000000
0.000058 0.000505 0.000000
0.000059 0.000511 0.000000
0.000063 0.000519 0.000000
0.000066 0.000525 0.000000
0.000068 0.000532 0.000000
0.000068 0.000538 0.000000
0.000069 0.000545 0.000000
0.000069 0.000551 0.000000
0.000070 0.000557 0.000000
0.000070 0.000562 0.000000
0.000069 0.000568 0.000000
0.000069 0.000573 0.000000
0.000069 0.000579 0.000000
0.000069 0.000584 0.000000
0.000069 0.000589 0.000000
0.000069 0.000594 0.000000
0.000069 0.000600 0.000000
0.000069 0.000605 0.000000
0.000069 0.000610 0.000000
0.000069 0.000615 0.000000
0.000056 0.000445 0.000000
0.000057 0.000450 0.000000
0.000057 0.000455 0.000000
0.000057 0.000460 0.000000
0.000057 0.000465 0.000000
0.000057 0.000470 0.000000
0.000057 0.000475 0.000000
0.000057 0.000481 0.000000
0.000057 0.000485 0.000000
0.000059 0.000489 0.000000
0.000058 0.000496 0.000000
0.000060 0.000499 0.000000
0.000061 0.000506 0.000000
0.000063 0.000512 0.000000
0.000066 0.000517 0.000000
[...]
POINT_DATA 8097
SCALARS density float 1
LOOKUP_TABLE default
4421.890612
4420.221443
4419.714147
4423.261920
4424.150998
4422.112663
4428.639196
4422.638154
4438.127426
4421.428089
4438.152847
4392.928176
4651.970480
4487.240220
4642.550481
4511.720602
4557.029721
4549.746048
4540.863806
4534.904892
4538.859384
4531.240709
4537.246265
4528.529977
4537.624383
4526.317406
4537.836434
4517.912919
4547.112308
4532.334253
4635.753084
4466.050758
4429.250279
4418.993894
4418.834049
4424.584905
4422.773548
4416.059724
4430.191592
4421.418212
4407.145076
4416.955173
4449.733199
4381.130450
4428.066994
4413.660924
4453.512716
4461.526185
4440.219052
4465.184731
4452.281274
4448.591704
4448.194896
4447.805555
4447.375931
4446.105794
4450.211700
4437.801309
4447.924323
4409.825185
4404.027103
4374.966806
4353.433033
4530.762952
4418.190798
4419.529366
4443.709702
4405.716546
4440.577532
4407.842849
4447.421566
4374.873420
4482.760976
4336.818051
4504.865154
4383.775523
4490.315879
4511.166677
4496.549564
4481.876768
4485.812435
4487.518904
4478.298072
4477.968207
4492.803692
4473.595300
4487.191004
4472.101360
4476.540930
4473.584831
4472.650666
4470.236228
4483.293095
4517.177018
4516.962557
4460.029719
4429.554797
4430.026752
4416.962294
4430.557811
4447.102735
4405.928412
4463.859244
4414.952298
4477.030512
4402.830065
4537.481764
4357.161569
4424.365406
4452.990460
4495.742788
4468.063483
4471.590200
4467.781456
4475.384152
4460.525628
4461.777243
4466.529807
4457.327540
4472.547494
4454.499243
4465.429050
4454.562847
4463.172532
4437.108535
4434.643172
4452.868345
4453.504498
4427.636188
4430.784788
4432.308792
4436.959233
4420.271268
4444.675699
4435.962820
4419.350733
4464.872523
4394.876748
4514.747790
4396.945392
4453.493899
4475.950675
4499.206218
4479.908642
4479.159203
4476.859958
4477.874779
4463.351040
4478.774803
4465.777996
4473.261281
4462.890833
4460.269462
4463.225605
4448.813743
4456.440856
4456.379206
4463.161083
4457.301401
4454.792355
4425.069093
4436.261837
4435.771778
4416.438578
4435.447619
4434.785910
4428.614003
4441.228494
4436.136312
4454.058467
4428.369893
4494.517851
4473.867234
4461.977875
4466.268222
4471.511477
4470.352161
4469.178754
4463.035134
4474.542248
4457.240979
4469.848493
4456.116334
4467.151678
4460.224590
4460.820369
4464.689644
4452.816607
4455.052430
4455.011183
4450.719968
4451.719146
4429.502038
4444.096705
4405.398736
4440.794202
4445.334653
4416.081985
4436.638121
4445.389090
4404.400741
4443.283863
4418.479097
4440.415168
4462.737328
4457.975783
4472.710708
4485.270592
4473.505248
4470.807551
4471.859420
4464.492691
4468.521125
4460.619984
4459.219719
4458.883606
4451.119075
4457.930657
4449.663732
4457.060592
4453.724769
4453.336301
4451.396884
4451.122700
4435.586843
4434.956411
4436.832002
4451.923773
4400.300075
4456.954139
4436.155666
4432.257065
4447.959405
4440.684829
4434.921114
4461.316410
4459.951904
4481.646007
4471.061993
4473.245071
4467.875405
4473.592743
4467.158333
4466.109420
4464.058062
4462.391255
4463.246990
4459.802845
4462.409687
4458.898722
4456.519216
4455.836972
4456.095437
4452.086125
4452.870634
4450.472323
4428.267925
4435.557836
4441.960097
4421.005706
4447.857191
4452.185665
4402.431723
4451.101091
4428.705544
4430.810176
4439.115755
4450.325067
4442.245910
4473.698326
4466.461037
4467.020648
4478.122357
4465.212379
4467.094270
4463.144865
4460.252853
4461.311551
4456.205989
4456.005887
4455.470415
4452.152245
4456.950141
4451.186226
4451.949729
4450.396061
4451.767681
4449.653800
4435.322287
4442.587201
4418.032886
4441.965705
4452.879770
4412.552666
4457.249121
4452.793743
4407.232713
4457.928581
4430.756938
4451.580531
4459.644465
4449.697002
4465.685814
4471.927724
4467.860308
4468.604304
4469.870856
4463.560963
4465.549078
4460.613521
4462.534569
4459.372581
4458.361752
4457.372096
4455.702759
4453.770483
4454.312147
4453.049427
4451.792262
4448.997787
4440.729249
4437.105816
4435.618550
4448.703181
4411.762325
4456.683849
4454.104669
4406.416906
4456.087284
4439.171671
4422.303215
4462.105145
4432.690489
4462.288431
4462.722592
4465.718083
4461.619651
4469.226569
4461.735069
4463.176168
4460.073886
4458.300112
4458.086628
4455.097278
4455.519474
4453.807276
4452.399442
4452.254997
4451.502384
4449.855249
4451.038142
4448.791825
4440.368585
4435.946293
4437.643284
4427.287725
4442.194802
4450.866215
4410.170317
4462.490792
4451.121791
4418.172484
4462.603494
4432.628474
4459.191368
4457.689841
4457.905771
4461.332627
4472.554759
4463.766895
4466.404551
4464.706014
4462.663028
4461.816384
4459.525072
4458.627599
4458.100394
4454.399322
4455.363275
4453.453669
4454.607223
4451.498860
4451.822472
4448.747028
4434.770320
4439.376981
4436.025340
4440.558717
4447.250977
4421.541698
4449.559643
4451.338890
4407.289622
4458.550364
4437.519633
4440.540305
4458.648981
4439.375000
4452.950211
4459.018595
4456.878266
4460.125528
4464.880446
4459.996653
4461.195493
4457.151345
4458.000474
4455.572812
4454.439903
4453.442523
4453.711957
4450.928437
4451.919829
4450.143719
4450.965106
4448.644215
4441.746790
4439.852251
4437.205168
4434.639309
4431.143023
4446.331033
4451.669303
4415.374858
4456.106992
4446.143973
4428.535268
4469.272581
4421.651455
4457.688974
4460.290481
4459.100354
4461.723049
4462.193870
4462.488704
4462.059773
4462.605108
4459.430838
4459.681467
4456.446144
4456.992026
4454.345026
4455.326822
4453.588264
4453.425650
4452.684289
4451.481329
4448.682132
4434.542508
4440.289085
4431.271914
4442.107959
4443.697706
4433.152276
4426.917686
4455.831888
4449.627678
4416.441785
4462.112186
4442.100426
4452.186073
4459.764040
4433.321819
4447.833111
4460.898302
4453.182096
4458.565620
4460.011197
4458.748503
4458.753953
4456.922056
4454.809657
4455.270872
4453.723208
4453.419858
4451.889876
4452.860807
4450.075479
4451.764568
4449.130537
4443.703044
4440.920726
4435.764221
4439.507699
4430.067339
4444.937799
4447.115870
4430.883574
4421.644045
4457.687111
4447.691898
4421.374341
4466.607658
4434.996949
4452.087134
4461.919352
4449.006266
4458.684173
4461.098136
4458.124803
4459.423962
4457.970916
4458.375918
4456.835198
4456.225481
4454.527792
4455.498131
4452.928378
4454.891750
4451.770415
4452.623113
4449.516929
4432.046209
4436.363470
4436.441514
4433.986968
4439.148097
4439.364654
4428.646456
4442.216841
4448.282518
4433.387789
4424.806662
4463.677998
4440.731508
4448.952300
4453.509277
4441.508352
4444.815778
4461.002350
4446.268455
4455.817381
4459.428606
4456.749239
4456.261204
4454.956287
4455.671017
4453.236249
4454.076986
4452.863562
4452.417623
4451.834416
4451.959161
4450.057756
4443.329785
4439.986627
4432.086591
4442.967084
4438.108888
4431.662600
4440.154421
4439.422477
4432.757318
4437.957471
4453.648000
4442.002503
4420.153881
4465.337504
4439.666046
4453.181106
4451.944015
4451.159864
4457.788550
4457.649636
4451.771716
4456.230267
4457.141542
4456.073118
4455.788996
4455.623683
4454.458887
4454.206816
4453.714534
4453.505940
4452.481841
4450.922961
4429.900786
4433.650780
4439.901056
4432.286600
4430.827926
4445.378882
4438.164922
4430.633127
4438.208705
4442.937062
4438.379121
4426.468491
4459.469072
4443.311388
4439.916612
4453.155136
4442.561583
4453.572906
4444.397546
4452.989600
4455.620078
4455.588508
4452.847184
4457.095977
4452.710890
4455.388537
4453.376283
4453.897606
4453.000710
4452.810086
4452.495812
4451.524048
4442.848493
4435.808725
4434.649146
4437.747364
4444.337182
4427.739695
4428.917437
4447.359330
4437.941607
4430.480071
4433.616275
4449.820245
4445.947351
4430.366930
4455.179442
4444.250305
4447.000791
4450.890644
4450.638405
4453.041753
4448.918417
4455.076584
4453.517778
4454.447389
4455.828242
4454.762557
4454.626691
4454.814370
4453.735085
4454.359238
4453.299866
4451.970764
4425.981459
4435.732708
4435.276189
4439.172502
4431.863203
4437.423990
4446.271299
4426.063401
4429.332784
4444.209228
4445.149307
4439.512801
4429.130363
4451.304706
4447.091876
4443.042163
4451.910957
4444.338188
4448.502028
4448.991471
4451.400260
4450.943288
4453.263921
4453.683520
4452.989776
4455.136402
4453.720384
4454.357455
4453.860402
4453.368873
4453.513848
4452.475135
4441.163317
4430.274528
4438.248086
4431.817283
4432.622222
4440.591118
4430.314103
4435.073355
4447.694508
4429.792033
4433.198837
4433.842368
4445.512083
4445.924660
4438.475585
4450.573354
4445.393548
4445.507178
4449.913972
4446.492655
4451.631313
4450.478178
4451.890726
4452.900475
4454.031418
4453.351981
4454.874004
4454.103107
4454.721290
4454.702603
4454.372385
4452.943042
4424.700268
4435.903317
4433.671759
4438.105337
4441.434978
4427.893711
4431.709725
4442.777968
4429.554196
4430.774711
4441.052362
4439.861530
4446.157953
4436.789925
4447.164042
4445.374961
4443.077467
4449.729299
4446.471339
4447.260216
4449.017169
4448.841888
4451.451828
4451.309171
4452.727335
4453.721957
4453.815976
4454.669999
4453.965086
4454.249207
4454.461395
4453.401846
4439.291330
4429.858971
4440.159740
4434.826626
4430.123205
4437.250011
4443.299986
4426.059464
4431.007490
4443.081198
4436.428310
4437.078909
4437.216617
4442.048856
4445.967757
4440.984597
4449.891778
4444.984146
4445.285912
4448.635550
4447.619530
4449.360613
4450.776754
4450.793017
4452.395694
4452.771238
4453.370398
4453.928305
4454.856399
4455.095621
4454.961252
4454.015222
4387.051380
4421.093270
4419.875522
4420.870146
4422.118988
4422.204945
4422.925391
4423.056277
4423.462348
4423.634899
4423.899777
4424.090277
4424.448321
4424.521731
4426.536214
4395.310846
4417.029241
4416.474140
4418.100625
4419.951214
4419.931971
4421.263402
4421.267793
4422.173383
4422.284234
4423.002370
4423.159494
4423.515046
4422.473494
4427.976002
4403.053230
4417.772908
4416.191104
4418.692232
4420.196521
4420.386706
4422.009790
4421.736592
4423.344283
4422.997135
4424.664986
4424.079082
4425.980817
4425.065578
4428.991604
4407.762389
4419.933477
4417.584822
4420.025012
4420.736041
4421.519832
4422.639455
4422.835015
4424.247530
4424.216521
4425.980208
4425.791309
4428.058723
4427.559689
4433.620095
4412.677717
4421.171192
4419.646689
4421.022041
4421.986327
4422.433977
4423.648254
4423.863104
4425.262525
4425.533857
4427.197790
4427.480752
4429.842835
4429.837445
4434.961352
4415.569677
4422.506882
4421.285038
4422.104326
4423.242077
4423.324373
4424.737700
4424.743395
4426.336796
4426.540946
4428.456244
4428.749882
4431.375973
4431.770442
4435.699190
4418.623438
4423.846922
4422.876103
4423.393257
4424.342716
4424.405036
4425.700880
4425.729334
4427.297394
4427.538430
4429.388197
4429.977604
4432.156996
4433.118214
4436.516350
4420.993121
4424.965828
4424.099315
4424.607561
4425.295851
4425.504527
4426.493772
4426.736932
4427.973115
4428.530425
4430.034621
4430.838244
4432.999196
4433.834867
4436.391836
4423.136754
4426.063073
4425.417452
4425.762303
4426.267949
4426.533700
4427.286003
4427.656586
4428.674111
4429.253861
4430.656989
4431.436264
4433.243722
4434.255737
4436.104497
4424.948504
4426.988594
4426.380439
4426.789032
4427.117091
4427.440720
4428.020148
4428.404234
4429.267635
4429.864750
4430.990753
4431.881475
4433.410715
4434.110174
4435.482406
4426.579861
4427.851638
4427.462641
4427.762807
4427.952506
4428.299409
4428.705979
4429.147433
4429.761980
4430.410424
4431.260289
4432.070031
4433.131502
4433.949038
4434.990860
4427.934778
4428.578934
4428.252725
4428.564422
4428.676333
4429.056947
4429.292319
4429.765530
4430.212277
4430.799800
4431.406862
4432.198505
4432.835862
4433.707579
4434.497031
4429.158433
4429.267899
4429.123270
4429.374685
4429.379350
4429.748340
4429.921277
4430.316630
4430.661644
4431.172463
4431.608784
4432.206759
4432.542713
4433.492898
4434.472064
4433.059082
4432.135779
4436.119942
4434.474607
4428.100625
4438.555964
4443.107646
4445.533346
4443.576713
4446.095187
4449.074465
4451.066634
4452.626992
4453.794156
4454.905015
4454.594331
4430.176155
4429.837247
4429.755426
4429.995733
4429.984235
4430.352619
4430.429485
4430.829332
4431.049894
4431.484477
4431.795149
4432.298105
4432.580170
4433.285614
4434.138344
4428.144921
4426.963462
4441.741728
4426.320230
4441.140840
4434.820021
4437.831005
4443.122034
4444.076181
4449.746557
4448.217149
4449.677787
4452.273103
4454.085215
4455.611314
4455.728433
4431.103120
4430.363899
4430.474329
4430.638729
4430.582760
4430.922468
4430.968696
4431.314854
4431.453960
4431.846968
4432.032454
4432.471283
4432.553994
4433.229197
4434.014699
4430.703727
4443.012382
4433.714275
4431.325425
4431.717506
4432.457619
4440.038070
4441.893518
4444.848713
4448.367394
4447.407884
4450.715827
4452.664828
4455.382518
4456.407821
4456.750475
4431.874599
4430.803008
4430.977154
4431.122370
4431.086560
4431.400175
4431.427376
4431.741344
4431.845570
4432.173715
4432.294192
4432.694711
4432.784024
4433.384573
4433.806575
4436.596581
4443.046067
4423.864438
4445.444584
4429.335635
4441.347854
4436.872420
4438.825384
4446.426384
4446.242318
4448.890184
4452.958255
4453.479583
4456.047488
4457.556349
4457.558689
4432.586774
4431.218578
4431.553228
4431.642708
4431.597549
4431.870740
4431.903453
4432.166203
4432.264125
4432.521221
4432.655493
4432.945924
4432.953870
4433.509247
4433.966550
4437.501877
4430.043911
4436.568868
4438.620499
4427.630519
4434.888740
4434.545038
4441.616985
4444.176575
4445.315175
4452.531841
4452.624901
4455.056987
4458.260939
4459.144448
4458.204687
4433.197237
4431.562294
4431.949626
4432.029482
4432.001105
4432.275800
4432.296377
4432.550846
4432.641591
4432.871020
4432.997887
4433.215559
4433.423452
4433.787261
4434.164467
4427.817247
4422.190945
4444.871941
4424.522435
4444.995334
4435.695992
4441.824341
4440.849575
4441.053382
4448.776624
4451.704542
4452.519150
4457.690869
4458.354454
4459.691656
4458.195719
4433.772900
4431.893128
4432.413853
4432.452261
4432.430640
4432.676678
4432.695722
4432.949065
4433.016065
4433.246187
4433.364266
4433.591992
4433.693679
4434.072889
4434.358164
4432.790790
4442.957863
4444.817846
4427.315639
4446.169455
4429.714922
4443.289698
4440.623877
4444.978158
4448.806675
4448.823941
4454.922999
4457.509923
4457.706363
4459.433823
4457.474960
4434.265088
4432.169525
4432.732082
4432.756881
4432.759964
4433.008747
4433.039527
4433.279078
4433.359651
4433.604316
4433.697047
4433.968274
4434.063105
4434.672198
4434.336765
4435.612268
4442.304377
4419.766969
4446.333326
4433.807743
4438.747505
4442.707043
4437.409471
4444.198553
4446.377846
4450.250243
4455.367332
4455.452825
4457.329510
4458.376000
4456.353181
4434.733482
4432.440598
4433.106700
4433.108660
4433.117330
4433.346522
4433.379543
4433.622867
4433.707527
4433.936335
4434.059752
4434.359873
4434.392971
4435.063905
4435.087198
4441.326750
4442.069073
4427.057905
4448.359473
4423.115504
4445.353206
4435.296875
4445.484504
4447.288513
4447.456008
4452.153575
4452.920373
4454.436539
4456.700654
4456.257191
4455.135464
4435.133192
4432.667334
4433.358833
4433.358336
4433.371744
4433.629700
4433.655589
4433.918119
4433.995774
4434.257407
4434.400832
4434.638610
4434.867645
4435.435775
4435.130459
4431.727781
4420.282953
4447.859339
4435.830376
4438.774360
4447.901160
4434.959204
4447.396664
4442.340491
4446.392368
4451.578264
4450.184231
4454.210352
4453.976866
4454.492133
4453.862907
4435.509291
4432.884544
4433.663664
4433.650541
4433.659252
4433.915648
4433.926595
4434.212060
4434.289617
4434.556101
4434.697841
4435.010705
4435.161530
4435.805000
4435.521889
4437.021133
4443.739157
4448.571510
4420.751264
4446.035634
4430.628556
4446.046274
4443.281468
4444.507943
4449.456031
4448.171628
4449.858317
4452.406278
4452.551338
4453.883488
4452.776299
4435.824052
4433.061774
4433.869322
4433.839192
4433.865277
4434.130095
4434.149293
4434.446242
4434.516046
4434.827592
4434.953624
4435.311070
4435.407532
4436.229326
4435.404398
4438.161302
4444.071117
4424.488127
4448.008977
4449.414860
4432.489924
4448.561445
4436.706677
4445.644337
4445.745738
4446.244754
4451.363595
4449.844783
4451.524466
4452.527681
4451.569083
4436.114235
4433.231003
4434.118276
4434.068915
4434.100425
4434.353903
4434.372288
4434.666722
4434.750451
4435.059653
4435.174493
4435.559716
4435.647807
4436.543811
4435.848846
4442.102367
4442.681938
4428.474844
4446.672408
4421.858521
4445.062378
4439.766950
4442.425116
4446.881523
4443.989151
4446.576869
4448.168537
4447.097326
4450.401237
4450.640914
4450.224373
4436.350709
4433.369574
4434.272121
4434.216760
4434.248297
4434.523122
4434.535261
4434.838690
4434.929952
4435.221166
4435.400483
4435.725485
4435.859525
4436.621471
4435.854782
4434.463197
4424.149782
4449.536832
4438.841090
4438.137054
4449.903130
4430.936866
4444.685151
4439.664347
4445.413958
4447.445460
4446.926143
4449.093396
4449.217718
4449.357994
4448.932324
4436.566090
4433.498754
4434.461729
4434.402030
4434.424319
4434.706567
4434.699522
4435.010164
4435.092295
4435.398668
4435.543302
4435.859279
4436.074970
4436.799852
4436.066504
4436.790652
4438.545665
4447.342325
4420.540510
4446.317008
4432.235232
4446.629750
4448.452940
4441.779059
4446.663701
4444.255583
4445.476285
4447.774914
4447.187735
4448.790017
4447.377209
4436.738550
4433.595713
4434.578290
4434.509980
4434.532479
4434.828944
4434.810574
4435.142387
4435.197630
4435.532621
4435.642266
4436.036129
4436.081110
4436.834590
4435.814853
4439.361257
4447.200353
4430.738679
4447.138188
4450.358235
4430.441862
4445.428876
4433.461463
4444.780588
4443.999408
4445.976872
4447.391898
4446.949370
4447.170197
4448.418375
4445.528199
4436.886005
4433.685685
4434.726284
4434.646566
4434.672243
4434.962129
4434.941288
4435.258323
4435.313471
4435.648324
4435.724617
4436.113677
4436.151584
4437.055257
4436.058910
4441.103680
4444.376697
4425.267259
4445.801603
4425.890405
4446.479458
4443.565912
4440.803067
4447.468807
4440.293380
4444.995567
4444.830801
4446.296650
4447.645114
4448.054687
4444.171655
4437.000716
4433.755745
4434.803622
4434.725720
4434.747498
4435.044688
4435.022327
4435.333174
4435.402243
4435.697303
4435.815427
4436.167524
4436.186499
4436.931793
4435.868826
4438.994427
4431.832405
4448.132327
4446.227454
4432.444939
4447.618143
4429.873844
4444.049459
4440.244689
4445.658506
4447.642691
4445.341213
4446.556789
4446.652956
4446.944001
4442.859827
4437.107757
4433.816992
4434.903408
4434.834354
4434.837089
4435.151343
4435.112221
4435.423858
4435.465366
4435.765800
4435.876963
4436.161314
4436.292508
4436.945486
4436.093432
4434.076232
4427.442104
4445.332345
4424.987679
4447.508971
4439.157623
4443.082604
4448.913324
4438.435731
4445.272680
4442.260868
4445.769463
4446.777072
4446.865021
4447.166158
4441.830577
4437.180083
4433.854992
4434.958597
4434.875313
4434.885484
4435.201570
4435.158055
4435.475497
4435.505993
4435.822589
4435.877880
4436.233899
4436.236278
4436.912482
4435.868542
4438.759947
4445.624820
4445.560075
4431.243102
4448.092805
4429.054979
4445.115554
4437.579362
4446.077278
4447.244432
4444.689497
4446.822099
4445.635018
4446.390185
4446.510799
4440.876483
4437.230169
4433.894450
4435.019882
4434.934485
4434.958897
4435.250339
4435.235835
4435.521524
4435.559669
4435.846612
4435.912821
4436.250218
4436.164163
4436.970590
4435.747314
4437.295126
4444.388138
4428.142809
4449.203990
4440.706207
4442.238396
4449.081359
4437.900724
4446.439620
4440.518098
4445.253003
4446.231253
4446.422666
4447.086765
4446.466848
4440.517281
4437.265507
4433.928297
4435.021629
4434.970503
4434.956325
4435.286785
4435.243280
4435.547713
4435.584629
4435.876596
4435.941084
4436.226031
4436.275144
4436.799725
4435.855469
4440.312585
4443.072444
4430.730889
4447.463797
4428.720458
4446.308029
4438.455436
4445.922890
4446.739074
4444.685064
4447.262166
4445.717099
4446.103651
4446.891818
4446.106320
4440.430333
4437.304192
4433.958449
4435.036281
4435.025954
4434.962583
4435.341116
4435.231942
4435.624288
4435.560555
4435.930956
4435.915965
4436.282186
4436.223781
4436.755035
4435.747165
4437.029124
4433.466548
4448.023600
4444.211125
4441.147236
4449.402375
4437.104410
4446.842021
4440.861577
4446.201820
4445.901689
4447.174707
4446.707942
4448.353051
4445.962705
4440.553392