# vtk DataFile Version 2.0
mfree iwf
ASCII

DATASET UNSTRUCTURED_GRID
POINTS 8904 float
0.000000 0.000445 0.000000
0.000001 0.000450 0.000000
0.000001 0.000455 0.000000
0.000001 0.000460 0.000000
0.000001 0.000465 0.000000
0.000001 0.000470 0.000000
0.000001 0.000475 0.000000
0.000001 0.000480 0.000000
0.000001 0.000485 0.000000
0.000001 0.000490 0.000000
0.000000 0.000496 0.000000
0.000002 0.000500 0.000000
0.000191 0.000592 0.000000
0.000191 0.000600 0.000000
0.000196 0.000645 0.000000
0.000197 0.000652 0.000000
0.000197 0.000652 0.000000
0.000198 0.000657 0.000000
0.000200 0.000665 0.000000
0.000200 0.000664 0.000000
0.000202 0.000675 0.000000
0.000208 0.000702 0.000000
0.000211 0.000707 0.000000
0.000214 0.000711 0.000000
0.000216 0.000715 0.000000
0.000219 0.000720 0.000000
0.000222 0.000723 0.000000
0.000225 0.000728 0.000000
0.000227 0.000731 0.000000
0.000231 0.000736 0.000000
0.000235 0.000742 0.000000
0.000250 0.000765 0.000000
0.000005 0.000445 0.000000
0.000006 0.000450 0.000000
0.000005 0.000455 0.000000
0.000006 0.000460 0.000000
0.000006 0.000465 0.000000
0.000006 0.000470 0.000000
0.000006 0.000475 0.000000
0.000006 0.000480 0.000000
0.000005 0.000485 0.000000
0.000007 0.000490 0.000000
0.000004 0.000496 0.000000
0.000006 0.000499 0.000000
0.000196 0.000641 0.000000
0.000204 0.000651 0.000000
0.000205 0.000682 0.000000
0.000207 0.000688 0.000000
0.000208 0.000692 0.000000
0.000210 0.000696 0.000000
0.000211 0.000699 0.000000
0.000214 0.000703 0.000000
0.000218 0.000709 0.000000
0.000220 0.000713 0.000000
0.000225 0.000719 0.000000
0.000228 0.000724 0.000000
0.000233 0.000729 0.000000
0.000236 0.000736 0.000000
0.000238 0.000740 0.000000
0.000241 0.000743 0.000000
0.000244 0.000753 0.000000
0.000246 0.000756 0.000000
0.000243 0.000753 0.000000
0.000249 0.000762 0.000000
0.000010 0.000445 0.000000
0.000011 0.000450 0.000000
0.000010 0.000456 0.000000
0.000011 0.000460 0.000000
0.000010 0.000465 0.000000
0.000011 0.000470 0.000000
0.000010 0.000475 0.000000
0.000011 0.000480 0.000000
0.000010 0.000486 0.000000
0.000012 0.000490 0.000000
0.000010 0.000497 0.000000
0.000012 0.000498 0.000000
0.000200 0.000641 0.000000
0.000205 0.000652 0.000000
0.000205 0.000668 0.000000
0.000205 0.000674 0.000000
0.000206 0.000679 0.000000
0.000207 0.000684 0.000000
0.000213 0.000681 0.000000
0.000215 0.000692 0.000000
0.000216 0.000696 0.000000
0.000218 0.000704 0.000000
0.000222 0.000706 0.000000
0.000224 0.000714 0.000000
0.000229 0.000714 0.000000
0.000233 0.000720 0.000000
0.000232 0.000725 0.000000
0.000236 0.000732 0.000000
0.000244 0.000746 0.000000
0.000245 0.000749 0.000000
0.000249 0.000757 0.000000
0.000254 0.000760 0.000000
0.000015 0.000445 0.000000
0.000016 0.000450 0.000000
0.000015 0.000455 0.000000
0.000017 0.000459 0.000000
0.000015 0.000466 0.000000
0.000017 0.000470 0.000000
0.000014 0.000475 0.000000
0.000017 0.000480 0.000000
0.000015 0.000485 0.000000
0.000017 0.000489 0.000000
0.000015 0.000495 0.000000
0.000017 0.000498 0.000000
0.000026 0.000500 0.000000
0.000206 0.000657 0.000000
0.000207 0.000670 0.000000
0.000211 0.000671 0.000000
0.000214 0.000686 0.000000
0.000210 0.000690 0.000000
0.000221 0.000692 0.000000
0.000220 0.000698 0.000000
0.000226 0.000702 0.000000
0.000225 0.000709 0.000000
0.000234 0.000714 0.000000
0.000229 0.000719 0.000000
0.000238 0.000725 0.000000
0.000240 0.000729 0.000000
0.000242 0.000734 0.000000
0.000243 0.000737 0.000000
0.000247 0.000741 0.000000
0.000251 0.000748 0.000000
0.000252 0.000752 0.000000
0.000257 0.000758 0.000000
0.000020 0.000445 0.000000
0.000021 0.000450 0.000000
0.000020 0.000456 0.000000
0.000022 0.000460 0.000000
0.000019 0.000466 0.000000
0.000022 0.000468 0.000000
0.000020 0.000475 0.000000
0.000022 0.000479 0.000000
0.000020 0.000486 0.000000
0.000022 0.000491 0.000000
0.000021 0.000497 0.000000
0.000022 0.000499 0.000000
0.000040 0.000500 0.000000
0.000212 0.000657 0.000000
0.000211 0.000663 0.000000
0.000214 0.000668 0.000000
0.000211 0.000678 0.000000
0.000218 0.000681 0.000000
0.000218 0.000688 0.000000
0.000223 0.000699 0.000000
0.000226 0.000695 0.000000
0.000230 0.000705 0.000000
0.000236 0.000707 0.000000
0.000241 0.000714 0.000000
0.000238 0.000720 0.000000
0.000243 0.000725 0.000000
0.000246 0.000730 0.000000
0.000252 0.000738 0.000000
0.000251 0.000743 0.000000
0.000256 0.000748 0.000000
0.000256 0.000752 0.000000
0.000261 0.000756 0.000000
0.000025 0.000445 0.000000
0.000026 0.000450 0.000000
0.000025 0.000455 0.000000
0.000026 0.000458 0.000000
0.000025 0.000466 0.000000
0.000026 0.000471 0.000000
0.000024 0.000476 0.000000
0.000027 0.000480 0.000000
0.000024 0.000485 0.000000
0.000026 0.000489 0.000000
0.000027 0.000493 0.000000
0.000028 0.000500 0.000000
0.000192 0.000618 0.000000
0.000208 0.000660 0.000000
0.000206 0.000663 0.000000
0.000215 0.000674 0.000000
0.000220 0.000677 0.000000
0.000221 0.000685 0.000000
0.000231 0.000687 0.000000
0.000225 0.000688 0.000000
0.000231 0.000698 0.000000
0.000233 0.000702 0.000000
0.000232 0.000710 0.000000
0.000237 0.000711 0.000000
0.000241 0.000719 0.000000
0.000248 0.000726 0.000000
0.000249 0.000734 0.000000
0.000253 0.000731 0.000000
0.000255 0.000744 0.000000
0.000257 0.000739 0.000000
0.000261 0.000749 0.000000
0.000265 0.000753 0.000000
0.000030 0.000445 0.000000
0.000031 0.000450 0.000000
0.000030 0.000457 0.000000
0.000033 0.000461 0.000000
0.000029 0.000465 0.000000
0.000031 0.000469 0.000000
0.000031 0.000473 0.000000
0.000030 0.000478 0.000000
0.000031 0.000486 0.000000
0.000032 0.000492 0.000000
0.000034 0.000497 0.000000
0.000031 0.000499 0.000000
0.000049 0.000500 0.000000
0.000210 0.000648 0.000000
0.000219 0.000664 0.000000
0.000218 0.000670 0.000000
0.000222 0.000674 0.000000
0.000224 0.000680 0.000000
0.000228 0.000691 0.000000
0.000233 0.000695 0.000000
0.000237 0.000694 0.000000
0.000240 0.000703 0.000000
0.000242 0.000708 0.000000
0.000245 0.000718 0.000000
0.000250 0.000718 0.000000
0.000249 0.000722 0.000000
0.000253 0.000726 0.000000
0.000254 0.000735 0.000000
0.000262 0.000739 0.000000
0.000261 0.000744 0.000000
0.000265 0.000747 0.000000
0.000269 0.000751 0.000000
0.000035 0.000445 0.000000
0.000035 0.000450 0.000000
0.000038 0.000455 0.000000
0.000034 0.000456 0.000000
0.000036 0.000465 0.000000
0.000037 0.000472 0.000000
0.000033 0.000479 0.000000
0.000040 0.000479 0.000000
0.000035 0.000484 0.000000
0.000035 0.000489 0.000000
0.000038 0.000491 0.000000
0.000037 0.000498 0.000000
0.000191 0.000584 0.000000
0.000192 0.000616 0.000000
0.000218 0.000657 0.000000
0.000223 0.000667 0.000000
0.000228 0.000678 0.000000
0.000231 0.000675 0.000000
0.000228 0.000684 0.000000
0.000234 0.000688 0.000000
0.000237 0.000699 0.000000
0.000242 0.000698 0.000000
0.000245 0.000709 0.000000
0.000250 0.000709 0.000000
0.000248 0.000714 0.000000
0.000259 0.000724 0.000000
0.000258 0.000729 0.000000
0.000262 0.000731 0.000000
0.000262 0.000735 0.000000
0.000266 0.000739 0.000000
0.000269 0.000744 0.000000
0.000273 0.000748 0.000000
0.000040 0.000445 0.000000
0.000041 0.000450 0.000000
0.000038 0.000460 0.000000
0.000042 0.000457 0.000000
0.000041 0.000465 0.000000
0.000040 0.000469 0.000000
0.000044 0.000476 0.000000
0.000038 0.000475 0.000000
0.000042 0.000487 0.000000
0.000043 0.000492 0.000000
0.000042 0.000497 0.000000
0.000045 0.000498 0.000000
0.000191 0.000527 0.000000
0.000205 0.000647 0.000000
0.000216 0.000653 0.000000
0.000229 0.000661 0.000000
0.000226 0.000673 0.000000
0.000232 0.000680 0.000000
0.000237 0.000683 0.000000
0.000238 0.000689 0.000000
0.000243 0.000693 0.000000
0.000244 0.000702 0.000000
0.000248 0.000701 0.000000
0.000253 0.000710 0.000000
0.000255 0.000716 0.000000
0.000260 0.000718 0.000000
0.000256 0.000721 0.000000
0.000263 0.000727 0.000000
0.000267 0.000732 0.000000
0.000271 0.000737 0.000000
0.000273 0.000742 0.000000
0.000277 0.000745 0.000000
0.000045 0.000445 0.000000
0.000046 0.000450 0.000000
0.000045 0.000455 0.000000
0.000046 0.000461 0.000000
0.000045 0.000465 0.000000
0.000046 0.000469 0.000000
0.000046 0.000478 0.000000
0.000041 0.000483 0.000000
0.000052 0.000485 0.000000
0.000046 0.000483 0.000000
0.000049 0.000493 0.000000
0.000051 0.000498 0.000000
0.000191 0.000534 0.000000
0.000196 0.000638 0.000000
0.000215 0.000662 0.000000
0.000228 0.000667 0.000000
0.000231 0.000669 0.000000
0.000237 0.000677 0.000000
0.000242 0.000685 0.000000
0.000245 0.000689 0.000000
0.000249 0.000696 0.000000
0.000253 0.000700 0.000000
0.000251 0.000705 0.000000
0.000258 0.000712 0.000000
0.000257 0.000706 0.000000
0.000264 0.000719 0.000000
0.000266 0.000722 0.000000
0.000268 0.000727 0.000000
0.000272 0.000731 0.000000
0.000274 0.000734 0.000000
0.000277 0.000739 0.000000
0.000281 0.000743 0.000000
0.000050 0.000445 0.000000
0.000051 0.000450 0.000000
0.000050 0.000456 0.000000
0.000051 0.000459 0.000000
0.000050 0.000465 0.000000
0.000052 0.000471 0.000000
0.000049 0.000473 0.000000
0.000051 0.000478 0.000000
0.000048 0.000488 0.000000
0.000053 0.000491 0.000000
0.000058 0.000493 0.000000
0.000054 0.000498 0.000000
0.000191 0.000563 0.000000
0.000200 0.000634 0.000000
0.000207 0.000642 0.000000
0.000225 0.000662 0.000000
0.000236 0.000669 0.000000
0.000237 0.000673 0.000000
0.000244 0.000678 0.000000
0.000241 0.000680 0.000000
0.000253 0.000689 0.000000
0.000248 0.000690 0.000000
0.000256 0.000698 0.000000
0.000260 0.000704 0.000000
0.000262 0.000710 0.000000
0.000264 0.000714 0.000000
0.000269 0.000718 0.000000
0.000271 0.000721 0.000000
0.000274 0.000727 0.000000
0.000278 0.000732 0.000000
0.000281 0.000736 0.000000
0.000285 0.000740 0.000000
0.000055 0.000445 0.000000
0.000056 0.000450 0.000000
0.000055 0.000455 0.000000
0.000056 0.000461 0.000000
0.000055 0.000464 0.000000
0.000057 0.000469 0.000000
0.000057 0.000477 0.000000
0.000059 0.000482 0.000000
0.000053 0.000483 0.000000
0.000057 0.000486 0.000000
0.000056 0.000497 0.000000
0.000060 0.000497 0.000000
0.000191 0.000572 0.000000
0.000194 0.000635 0.000000
0.000203 0.000641 0.000000
[...]
POINT_DATA 8904
SCALARS density float 1
LOOKUP_TABLE default
4428.975122
4431.204978
4426.227005
4422.468168
4422.573233
4428.404374
4439.727549
4434.370339
4443.191066
4425.866438
4433.861506
4397.260553
4473.430849
4468.029998
4429.560750
4421.295964
4428.592167
4425.495977
4432.216631
4445.447964
4433.340390
4425.742053
4413.390243
4441.325212
4428.857389
4423.487262
4444.352119
4433.996626
4427.288162
4438.918928
4446.173139
4447.846586
4423.631112
4427.719689
4423.160081
4435.764470
4438.989246
4416.920308
4421.477780
4421.776220
4402.838569
4418.175820
4443.991786
4399.618100
4417.077121
4436.021107
4392.048713
4423.030480
4417.431742
4403.765493
4418.816310
4431.284444
4425.702484
4412.545322
4411.605366
4405.590140
4437.252134
4397.039551
4410.702377
4409.154122
4421.279788
4406.152034
4423.338106
4439.247943
4422.007182
4425.516832
4444.671624
4405.927061
4437.641995
4420.951444
4452.038261
4390.004973
4483.996999
4364.295240
4476.569423
4408.201669
4419.504691
4452.686791
4432.137578
4394.620993
4405.301822
4391.791849
4468.826410
4382.346339
4459.175676
4408.499449
4410.441084
4427.420009
4404.312137
4418.112174
4434.297103
4400.873834
4441.116858
4440.527598
4434.109119
4404.507229
4432.198906
4443.085046
4437.336186
4442.489245
4439.531872
4405.563205
4459.167920
4377.011459
4475.871916
4374.068951
4522.292446
4395.240897
4437.912124
4386.797008
4454.511270
4429.786952
4406.210229
4460.825244
4407.160028
4444.272525
4430.511209
4435.175796
4412.358795
4454.657265
4411.821968
4463.562875
4458.494311
4465.461241
4438.020595
4380.930073
4495.911248
4444.574223
4433.557779
4428.794325
4440.215968
4416.522622
4447.371852
4438.200180
4442.956144
4436.705736
4468.083172
4381.827052
4472.157520
4440.346846
4420.659247
4393.606460
4457.021817
4389.762792
4517.785959
4377.442034
4442.371139
4450.590499
4431.659553
4431.116491
4426.273193
4421.512307
4447.048059
4404.474565
4412.091896
4444.176049
4422.397515
4449.094545
4339.387777
4451.275710
4428.766484
4437.735847
4438.066933
4432.905146
4450.743449
4406.696915
4454.940697
4384.395782
4423.901569
4460.574005
4407.450597
4427.220748
4430.263162
4479.411992
4356.700184
4338.315870
4471.160816
4455.289230
4447.527873
4440.580443
4435.311147
4443.119613
4432.428798
4450.992747
4446.731910
4457.088919
4358.354820
4473.864562
4461.296841
4392.874748
4439.350459
4425.758199
4441.109085
4425.201161
4409.643127
4434.546929
4420.134605
4441.454800
4422.363586
4451.883869
4447.534786
4398.250257
4465.945950
4423.005046
4425.449970
4427.343684
4431.994894
4485.201899
4442.516885
4422.086537
4428.258286
4428.276128
4423.710815
4422.974624
4442.462936
4417.829965
4429.400851
4429.525319
4401.769904
4445.488173
4469.861785
4401.308443
4407.809765
4435.334306
4438.373775
4424.056876
4421.451787
4426.405879
4429.118248
4432.316010
4428.958070
4416.718589
4414.688335
4434.097690
4407.280535
4449.323668
4528.591308
4431.685539
4457.063352
4385.399683
4469.109564
4424.971857
4385.564787
4447.372903
4427.923099
4440.473416
4390.764548
4458.270453
4421.015004
4410.297140
4420.746990
4433.443441
4426.401606
4446.466840
4417.684576
4427.793532
4423.683310
4437.933052
4434.780633
4408.625789
4434.960012
4419.602855
4435.566122
4422.065480
4456.424712
4433.402860
4436.690278
4428.641945
4622.616715
4386.333836
4413.420191
4433.912172
4377.770415
4436.001182
4436.499128
4427.936647
4438.676957
4433.351925
4455.053103
4455.416614
4406.029227
4428.610838
4452.499200
4455.081016
4396.378537
4423.994250
4416.806908
4434.791416
4433.055109
4416.297253
4423.371376
4418.991349
4448.350950
4421.508037
4446.594586
4434.706898
4475.497935
4389.142657
4465.678312
4449.278609
4488.855114
4421.942383
4418.326793
4472.748080
4453.828926
4426.706458
4403.689840
4462.810046
4402.553548
4423.711176
4411.664957
4421.489746
4398.280384
4411.210028
4433.208000
4417.329905
4443.062143
4450.883222
4425.080357
4419.008943
4432.965105
4421.569022
4442.290394
4438.220463
4394.308750
4431.019495
4448.097644
4367.154589
4388.015463
4387.417326
4552.684039
4410.100157
4590.741266
4455.798666
4448.138110
4450.786743
4446.078176
4428.723775
4446.236412
4460.730740
4444.836521
4448.483692
4440.261348
4446.030670
4452.069793
4451.237274
4444.647336
4449.351634
4425.908583
4419.759495
4425.917923
4428.128495
4431.383616
4422.448348
4411.874175
4417.923219
4444.419256
4412.987434
4432.622381
4420.288324
4476.500095
4384.018104
4414.402253
4386.448378
4571.197861
4424.382493
4446.441070
4431.127913
4436.470194
4425.590252
4451.492946
4434.498759
4450.492128
4433.849752
4468.334405
4408.342720
4438.079243
4407.483324
4425.086595
4433.339008
4443.985818
4423.828780
4429.169360
4420.197969
4429.017326
4400.044806
4436.160951
4399.841351
4430.098872
4396.999370
4462.069068
4409.780264
4454.186719
4397.640553
4452.586470
4441.343594
4412.137505
4448.538632
4458.220177
4394.977549
4371.861231
4436.933068
4414.528725
4459.734916
4417.722057
4438.909126
4414.830845
4448.606686
4407.424270
4449.474716
4445.622684
4444.283282
4417.623570
4428.265570
4423.905707
4422.821970
4435.917864
4425.806290
4437.451464
4420.003453
4444.811847
4426.969978
4446.032814
4433.355676
4459.263632
4382.847534
4431.641692
4437.154196
4515.541469
4437.641874
4418.849084
4422.923225
4471.862826
4439.496975
4446.515939
4429.556715
4420.917999
4443.804868
4444.754774
4450.491403
4410.216617
4411.019277
4414.479557
4436.719807
4443.995920
4419.407855
4429.302692
4422.904755
4427.252014
4429.831477
4418.338218
4432.190763
4417.799281
4406.145409
4450.591440
4389.780420
4433.420353
4439.428270
4442.371132
4444.890808
4544.221254
4399.871171
4434.835339
4441.031565
4453.763313
4401.251704
4452.192431
4460.849825
4440.311050
4414.277704
4419.861521
4438.425582
4407.971794
4462.248277
4413.734565
4425.858251
4438.271742
4411.767711
4430.366662
4420.820219
4440.145342
4422.512903
4423.216633
4419.376192
4429.675155
4432.012510
4416.983232
4455.343087
4435.938234
4411.299374
4423.004155
4448.795460
4426.137779
4412.613783
4424.646225
4374.312735
4437.145510
4477.245315
4438.006894
4442.191004
4408.700892
4469.807696
4429.302558
4436.809014
4452.170198
4453.432060
4440.952060
4437.259608
4415.380803
4442.116474
4415.122998
4421.261668
4422.581340
4418.147308
4427.470109
4426.411760
4426.826766
4423.925207
4419.178424
4404.665371
4394.934102
4497.012230
4353.364798
4428.736838
4431.744321
4392.332699
4480.800512
4419.480207
4435.850092
4422.620844
4418.531692
4410.908929
4443.029514
4455.128954
4448.565619
4434.014619
4456.188108
4458.665312
4424.242194
4448.225560
4419.599595
4441.037188
4414.486535
4426.024975
4445.253256
4418.704905
4429.650317
4436.082019
4429.764611
4412.273825
4438.582428
4449.371440
4443.615932
4445.180971
4452.268060
4480.822974
4603.923895
4601.989805
4501.838729
4427.791762
4428.528493
4414.965316
4452.020646
4447.084997
4434.141557
4428.527180
4444.845861
4419.547456
4402.746243
4451.460130
4437.023183
4410.835324
4424.285525
4431.620930
4421.986035
4427.594330
4421.445324
4422.559064
4434.621102
4419.871015
4401.103335
4437.558990
4421.026475
4470.417526
4441.296809
4416.525562
4401.857971
4418.366085
4406.614611
4414.845911
4393.745782
4425.301813
4420.502009
4416.260854
4460.965800
4448.219380
4429.397412
4423.007655
4452.837462
4440.943633
4470.070300
4428.413224
4466.938117
4436.605179
4439.721790
4425.006618
4418.555992
4419.023357
4441.113168
4430.132886
4436.039022
4433.122841
4447.990888
4398.646032
4408.063325
4423.987700
4408.312865
4440.355596
4441.320907
4433.168530
4396.505020
4374.694406
4502.021721
4482.033775
4445.916764
4435.037304
4417.245421
4366.848189
4486.173623
4411.436265
4436.301503
4386.493927
4455.727921
4431.674249
4433.329952
4406.617126
4421.723883
4431.072371
4423.480388
4423.129176
4412.154816
4418.263373
4431.848486
4418.674965
4430.192983
4413.853051
4416.353098
4366.124733
4437.480023
4484.832525
4381.510311
4584.063589
4406.225088
4452.724088
4415.999893
4520.473012
4404.062385
4447.308619
4399.862960
4436.610485
4438.258810
4468.389227
4425.892297
4450.212218
4417.905486
4456.934209
4434.734759
4469.637051
4451.507714
4416.500134
4430.780314
4416.593481
4451.552896
4436.788181
4415.894079
4413.706290
4440.642886
4409.411313
4455.563138
4424.833208
4452.297437
4387.591125
4418.429049
4431.320548
4498.376917
4418.150679
4499.513858
4427.112335
4413.237224
4427.702432
4445.245507
4449.605141
4390.002772
4358.742629
4426.132880
4461.122266
4419.254967
4409.728595
4446.659126
4420.450923
4422.704359
4415.974386
4431.528788
4425.213009
4422.165209
4432.394036
4426.608966
4429.711508
4416.157430
4388.387206
4457.590879
4394.605053
4450.230090
4363.551994
4354.629292
4504.649743
4419.675424
4467.722366
4454.260391
4434.054379
4486.857035
4419.276805
4404.692309
4400.614996
4422.875791
4423.268229
4414.937399
4458.101639
4476.807881
4416.247965
4438.185351
4441.425692
4462.041043
4428.742990
4411.707158
4426.272461
4440.027125
4441.655404
4419.074148
4423.144810
4435.648024
4450.496268
4439.721369
4416.244405
4467.095384
4455.389215
4447.821971
4426.150849
4487.283896
4425.840104
4451.821010
4465.213995
4429.451295
4477.374573
4442.442115
4390.006417
4443.404758
4432.489904
4382.856663
4378.497893
4456.830435
4454.295589
4432.654918
4444.330185
4419.993847
4423.132142
4434.481369
4423.232015
4412.682918
4427.647907
4427.073865
4427.768616
4428.480290
4428.573922
4429.042467
4429.117699
4429.560176
4429.636526
4430.042071
4430.031900
4430.257285
4429.973211
4429.746711
4417.284884
4425.962542
4425.932726
4427.028096
4427.719218
4428.038094
4428.731188
4428.794725
4429.316196
4429.272215
4429.865174
4429.908787
4430.021407
4430.201127
4431.779445
4420.860572
4425.951156
4425.565082
4426.614328
4427.572986
4427.590923
4428.395424
4428.324145
4429.110241
4429.042292
4429.565353
4429.283325
4429.577491
4430.213828
4429.332032
4422.545134
4426.502943
4426.073319
4426.977651
4427.430033
4427.804155
4428.367704
4428.504044
4428.844915
4428.891047
4429.145989
4429.323332
4429.683953
4429.378234
4430.474360
4424.429463
4426.819741
4426.530065
4426.969329
4427.458955
4427.659426
4428.100128
4428.204739
4428.704190
4428.741587
4429.188013
4428.672579
4429.483354
4428.312528
4429.864870
4425.072340
4427.222374
4426.967517
4427.146726
4427.814540
4427.633615
4428.492435
4428.107747
4428.918267
4428.305094
4429.084437
4428.647907
4429.258806
4427.790827
4429.275998
4425.738467
4427.476925
4427.210141
4427.339398
4427.699423
4427.682615
4428.167906
4428.044624
4428.568709
4428.511367
4428.945400
4428.444757
4428.621682
4427.673210
4428.703004
4426.220786
4427.752616
4427.479852
4427.549160
4427.906176
4427.961116
4428.223173
4428.334701
4428.526000
4428.485184
4428.650590
4428.680118
4428.904811
4427.798737
4427.553308
4426.431198
4427.945722
4427.563108
4427.688928
4427.869881
4427.773222
4428.221012
4427.978628
4428.491231
4428.436382
4428.931136
4428.686572
4428.976592
4428.767802
4429.025222
4426.902081
4428.140409
4427.728785
4427.882011
4427.966669
4428.174555
4428.115295
4428.389585
4428.428349
4428.498100
4428.674713
4429.025411
4429.713106
4429.030610
4430.334333
4426.841927
4428.245345
4427.776520
4427.941881
4427.885523
4427.980137
4428.027726
4428.110755
4428.206938
4428.498971
4428.844981
4428.852368
4429.713637
4429.740008
4430.682170
4427.176526
4428.371825
4427.876593
4428.006307
4428.160527
4428.014543
4428.286971
4428.039131
4428.560228
4428.175236
4428.644476
4428.816653
4429.463214
4429.977946
4430.274195
4427.427797
4428.229963
4428.176725
4427.919341
4428.011077
4427.986126
4427.954208
4428.066814
4428.056993
4428.273693
4428.483949
4428.452560
4429.006211
4429.136608
4430.566988
4441.176999
4443.270436
4410.553942
4428.555277
4447.719875
4448.221602
4438.847539
4474.387108
4419.245244
4465.828828
4431.802316
4480.297044
4433.207849
4423.750131
4423.627997
4411.071682
4427.551813
4428.403394
4428.120700
4428.015927
4428.246333
4427.978337
4428.178988
4428.017304
4428.241933
4427.973511
4428.148040
4428.078810
4428.586752
4428.079082
4429.946197
4419.999250
4444.010532
4448.967261
4438.761600
4461.931477
4433.004378
4410.568872
4398.233281
4433.574982
4422.408317
4409.774828
4444.371975
4440.078331
4466.703333
4411.358669
4409.744828
4427.421865
4428.353275
4428.227743
4427.924758
4428.186317
4427.712521
4428.217568
4427.507467
4428.202394
4427.457222
4428.344372
4427.251116
4428.070158
4427.092304
4427.886332
4426.196890
4421.609886
4418.039331
4437.732907
4391.111451
4448.888358
4444.901223
4446.929096
4450.049644
4452.179569
4409.365353
4388.590752
4442.653145
4458.698579
4385.827429
4437.169262
4427.649047
4428.414191
4428.336732
4427.913010
4428.380907
4427.896327
4428.142225
4427.848013
4428.093560
4427.582526
4427.807752
4427.214586
4427.234919
4425.503266
4427.720189
4434.779209
4441.905591
4410.115021
4367.348413
4478.041354
4461.776005
4476.766169
4450.271464
4437.822878
4424.330778
4441.279999
4449.022871
4393.018569
4433.646000
4431.865428
4406.981749
4427.553723
4428.562823
4428.139153
4428.192919
4428.064306
4427.843149
4428.016749
4427.645696
4427.740162
4427.638527
4427.340894
4426.525953
4426.666838
4424.432318
4423.681232
4438.734013
4437.942590
4457.926836
4435.082073
4486.337146
4422.386312
4512.971036
4474.487501
4469.182164
4453.108964
4432.622984
4468.474450
4446.176525
4357.958041
4420.995480
4410.327470
4427.652796
4428.724829
4428.150098
4428.302092
4428.061173
4428.235059
4427.853003
4428.008579
4427.957575
4427.279947
4427.583491
4426.322823
4426.408191
4423.447353
4420.638294
4410.431043
4410.846229
4437.865585
4443.705110
4433.773125
4369.973310
4597.107594
4468.333772
4424.145391
4439.343652
4453.680855
4442.272347
4395.834967
4424.508167
4423.573540
4424.649177
4427.953897
4428.668328
4428.266264
4428.336803
4428.072879
4428.011245
4427.939917
4427.975794
4427.481358
4428.150709
4426.602759
4427.420219
4424.960274
4425.396963
4423.123154
4452.427107
4393.790285
4436.225747
4431.003706
4444.325401
4532.772484
4481.225825
4526.604356
4463.846337
4437.760108
4457.903327
4474.607841
4431.836664
4472.638583
4472.995520
4407.460995
4427.863371
4428.868460
4428.214383
4428.498137
4428.067958
4428.376581
4427.984016
4428.136211
4428.034756
4427.596536
4427.955174
4427.114974
4427.462544
4426.944805
4424.378730
4440.211286
4427.383883
4421.820855
4429.392787
4475.296555
4429.951413
4494.151120
4473.074143
4447.349172
4493.511478
4417.220338
4458.828031
4441.669791
4444.228847
4395.723456
4411.965622
4427.923083
4428.740298
4428.421205
4428.295518
4428.389518
4428.052318
4428.316343
4427.966589
4428.266172
4427.905820
4428.146968
4427.978827
4428.348477
4428.358492
4430.221442
4436.468657
4419.400719
4438.927730
4424.182235
4451.972869
4474.997287
4454.689660
4455.886673
4483.816710
4461.261438
4424.994323
4392.184447
4407.622489
4448.682620
4381.303264
4417.419616
4428.050536
4428.791503
4428.590188
4428.416059
4428.550235
4428.248629
4428.512259
4428.206220
4428.271160
4428.261105
4428.253799
4428.250076
4429.031084
4429.337739
4429.677731
4454.859198
4419.506089
4448.352580
4456.171099
4455.838081
4455.265066
4435.507314
4443.142157
4443.964488
4453.853239
4440.994460
4462.763690
4449.936204
4450.759805
4373.467434
4439.512384
4428.136037
4428.994674
4428.461277
4428.718466
4428.304784
4428.573889
4428.215327
4428.347515
4428.425194
4428.045286
4428.604805
4428.500641
4428.538124
4429.653877
4428.127739
4427.603650
4438.669734
4436.065765
4441.377935
4455.233880
4450.895861
4447.212611
4471.965485
4460.274646
4467.041702
4435.663940
4457.361922
4459.768376
4450.631503
4398.379077
4414.959365
4428.186091
4429.055491
4428.571547
4428.703805
4428.628966
4428.433346
4428.600042
4428.421381
4428.232759
4428.664208
4428.291142
4428.538749
4428.281851
4428.274341
4428.225194
4433.902850
4451.725941
4401.064116
4409.576972
4451.462404
4452.648497
4450.430683
4450.104929
4464.206605
4433.038704
4471.221272
4415.762690
4459.480746
4401.618162
4275.603060
4433.050965
4428.348990
4429.005011
4428.873475
4428.702883
4428.630032
4428.611495
4428.436841
4428.390835
4428.666209
4428.232888
4428.622947
4428.428580
4428.356267
4428.246850
4427.198826
4422.961549
4435.565780
4432.736442
4449.537072
4441.821858
4438.812989
4438.499427
4451.544004
4439.960299
4462.830212
4442.232598
4433.558565
4450.925903
4366.394991
4549.553695
4442.511788
4428.316556
4429.289549
4428.690661
4429.019253
4428.703436
4428.684679
4428.796726
4428.570520
4428.602486
4428.510849
4428.547457
4427.923812
4428.372110
4427.757350
4427.697624
4435.851087
4440.966102
4431.518776
4420.284212
4445.103524
4466.386257
4448.061901
4431.987830
4439.315087
4454.621258
4416.448995
4439.435821
4419.765026
4437.236876
4406.045494
4396.113342
4428.464043
4429.358700
4428.863005
4428.975612
4428.859558
4428.932980
4428.603229
4428.820117
4428.480114
4428.614553
4428.008775
4428.604730
4427.476830
4427.957376
4428.079689
4438.661982
4428.220606
4405.185447
4408.984987
4429.666805
4427.497841
4425.179352
4424.576125
4389.483783
4465.785817
4473.266160
4445.157915
4440.902191
4451.351380
4442.966525
4425.094732
4428.509511
4429.433775
4428.968810
4429.445573
4428.747169
4429.239688
4428.736781
4428.889704
4428.632197
4428.504619
4428.537637
4427.905982
4428.016831
4428.316977
4426.915327
4441.028460
4409.074927
4432.151330
4430.111056
4429.876757
4411.419284
4459.793682
4457.692845
4475.465674
4440.923419
4430.708375
4434.467498
4450.601841
4418.386491
4427.914195
4415.458958
4428.780211
4429.564308
4429.162816
4429.172866
4429.325845
4428.990131
4429.100929
4428.923289
4428.742671
4428.881417
4428.324837
4428.755860
4428.160000
4427.475945
4431.516112
4431.685806
4432.119109
4429.623270
4440.943503
4436.102454
4449.515061
4416.480707
4406.084615
4434.395153
4446.940932
4424.874148
4429.543756
4457.901982
4455.705720
4420.098790
4455.485181
4428.868296
4429.409936
4429.604172
4429.270438
4429.536556
4429.154808
4429.395531
4428.874401
4429.240004
4428.475580
4428.787634
4428.190660
4428.093567
4427.676569
4429.244503
4429.356783
4432.964326
4431.452465
4425.559748
4410.330226
4418.575082
4439.973849
4411.483332
4450.906807
4416.082482
4446.644421
4456.342858
4466.377762
4420.763166
4425.733962
4449.124471
4429.155408
4429.744055
4429.523367
4429.650408
4429.459462
4429.430914
4429.399981
4429.070355
4429.197494
4428.663031
4429.273114
4428.010723
4429.174843
4427.721104
4426.710752
4403.759909
4439.902395
4405.923816
4430.832329
4436.275883
4412.594698
4442.088706
4407.426333
4413.376166
4456.252209
4444.697949
4426.496081
4429.923877
4461.520501
4476.166545
4456.989825
4429.246336
4429.988758
4429.606983
4429.781250
4429.748346
4429.618314
4429.545439
4429.513532
4429.308788
4429.399039
4428.555901
4429.407230
4427.850970
4427.472998
4430.483782
4433.364350
4442.489128
4422.350159
4432.413484
4429.104432
4421.311728
4427.084963
4444.873955
4425.154539
4431.678114
4443.448159
4448.429354
4449.450723
4455.352096
4464.641190
4453.328088
4429.589107
4429.963415
4429.966573
4429.916175
4429.841326
4429.880187
4429.823030
4429.746731
4429.623188
4429.421868
4429.690535
4428.479148
4429.353250
4428.964524
4428.143374
4435.863397
4417.479379
4455.261477
4432.843747
4419.970319
4412.481078
4451.053659
4405.379651
4402.487173
4446.959124
4459.672268
4472.953280
4476.521413
4458.252020
4464.250913
4454.575067
4429.971815
4430.254947
4430.029146
4430.287982
4430.077307
4430.188465
4430.050809
4429.935895
4430.000240
4429.616556
4429.380544
4429.651440
4429.023016
4428.537293
4430.296966
4434.705101
4422.511593
4442.484460
4392.593324
4438.184568
4431.060091
4447.370543
4416.121993
4406.003530
4450.341558
4449.133145
4438.223785
4440.448936
4458.523405
4459.233643
4452.574810
4430.255735
4430.490626
4430.186766
4430.489317
4430.175384
4430.481769
4430.133232
4430.483988
4429.845156
4430.546161
4429.770134
4429.910279
4429.276583
4429.343159
4430.229689
4431.655800
4408.092536
4430.309259
4449.644042
4443.612199
4433.689446
4421.105635
4422.461313
4431.358739
4430.968690
4430.555278
4431.442653
4439.387232
4446.144021
4431.073310
4447.772610