# vtk DataFile Version 2.0
mfree iwf
ASCII

DATASET UNSTRUCTURED_GRID
POINTS 9141 float
0.000000 0.000445 0.000000
0.000000 0.000450 0.000000
0.000000 0.000455 0.000000
0.000000 0.000460 0.000000
0.000000 0.000465 0.000000
0.000000 0.000470 0.000000
0.000001 0.000475 0.000000
0.000001 0.000480 0.000000
0.000001 0.000485 0.000000
0.000001 0.000490 0.000000
0.000000 0.000496 0.000000
0.000002 0.000500 0.000000
0.000245 0.000652 0.000000
0.000247 0.000661 0.000000
0.000265 0.000703 0.000000
0.000268 0.000709 0.000000
0.000268 0.000708 0.000000
0.000271 0.000713 0.000000
0.000275 0.000720 0.000000
0.000274 0.000719 0.000000
0.000280 0.000730 0.000000
0.000294 0.000753 0.000000
0.000298 0.000757 0.000000
0.000302 0.000760 0.000000
0.000305 0.000763 0.000000
0.000310 0.000767 0.000000
0.000313 0.000769 0.000000
0.000318 0.000773 0.000000
0.000321 0.000775 0.000000
0.000326 0.000779 0.000000
0.000331 0.000783 0.000000
0.000352 0.000800 0.000000
0.000005 0.000445 0.000000
0.000005 0.000450 0.000000
0.000005 0.000455 0.000000
0.000005 0.000460 0.000000
0.000005 0.000465 0.000000
0.000005 0.000470 0.000000
0.000005 0.000475 0.000000
0.000006 0.000480 0.000000
0.000005 0.000485 0.000000
0.000007 0.000490 0.000000
0.000004 0.000496 0.000000
0.000006 0.000499 0.000000
0.000263 0.000698 0.000000
0.000274 0.000705 0.000000
0.000285 0.000735 0.000000
0.000288 0.000740 0.000000
0.000291 0.000744 0.000000
0.000293 0.000747 0.000000
0.000296 0.000750 0.000000
0.000299 0.000752 0.000000
0.000305 0.000756 0.000000
0.000309 0.000760 0.000000
0.000315 0.000764 0.000000
0.000319 0.000768 0.000000
0.000325 0.000771 0.000000
0.000330 0.000777 0.000000
0.000334 0.000780 0.000000
0.000338 0.000783 0.000000
0.000343 0.000791 0.000000
0.000346 0.000794 0.000000
0.000342 0.000791 0.000000
0.000350 0.000798 0.000000
0.000010 0.000445 0.000000
0.000011 0.000450 0.000000
0.000010 0.000455 0.000000
0.000011 0.000460 0.000000
0.000010 0.000466 0.000000
0.000011 0.000469 0.000000
0.000011 0.000475 0.000000
0.000011 0.000480 0.000000
0.000010 0.000486 0.000000
0.000012 0.000490 0.000000
0.000009 0.000497 0.000000
0.000011 0.000498 0.000000
0.000268 0.000698 0.000000
0.000277 0.000706 0.000000
0.000281 0.000721 0.000000
0.000283 0.000728 0.000000
0.000285 0.000732 0.000000
0.000288 0.000737 0.000000
0.000292 0.000732 0.000000
0.000297 0.000741 0.000000
0.000298 0.000745 0.000000
0.000304 0.000751 0.000000
0.000308 0.000752 0.000000
0.000312 0.000759 0.000000
0.000317 0.000758 0.000000
0.000323 0.000763 0.000000
0.000323 0.000768 0.000000
0.000330 0.000774 0.000000
0.000341 0.000784 0.000000
0.000343 0.000786 0.000000
0.000349 0.000793 0.000000
0.000355 0.000794 0.000000
0.000015 0.000445 0.000000
0.000016 0.000450 0.000000
0.000015 0.000456 0.000000
0.000016 0.000459 0.000000
0.000015 0.000465 0.000000
0.000016 0.000471 0.000000
0.000014 0.000475 0.000000
0.000017 0.000480 0.000000
0.000015 0.000485 0.000000
0.000017 0.000489 0.000000
0.000015 0.000495 0.000000
0.000017 0.000498 0.000000
0.000026 0.000500 0.000000
0.000277 0.000711 0.000000
0.000283 0.000723 0.000000
0.000287 0.000722 0.000000
0.000294 0.000736 0.000000
0.000291 0.000740 0.000000
0.000303 0.000741 0.000000
0.000304 0.000745 0.000000
0.000312 0.000746 0.000000
0.000312 0.000754 0.000000
0.000323 0.000757 0.000000
0.000318 0.000762 0.000000
0.000328 0.000766 0.000000
0.000332 0.000769 0.000000
0.000336 0.000773 0.000000
0.000337 0.000776 0.000000
0.000342 0.000778 0.000000
0.000348 0.000783 0.000000
0.000350 0.000787 0.000000
0.000357 0.000791 0.000000
0.000020 0.000445 0.000000
0.000021 0.000450 0.000000
0.000020 0.000456 0.000000
0.000022 0.000461 0.000000
0.000019 0.000466 0.000000
0.000022 0.000468 0.000000
0.000020 0.000475 0.000000
0.000022 0.000479 0.000000
0.000019 0.000486 0.000000
0.000022 0.000490 0.000000
0.000021 0.000497 0.000000
0.000022 0.000499 0.000000
0.000039 0.000500 0.000000
0.000284 0.000708 0.000000
0.000285 0.000715 0.000000
0.000289 0.000718 0.000000
0.000288 0.000728 0.000000
0.000297 0.000730 0.000000
0.000300 0.000737 0.000000
0.000308 0.000747 0.000000
0.000308 0.000740 0.000000
0.000315 0.000750 0.000000
0.000322 0.000748 0.000000
0.000330 0.000755 0.000000
0.000330 0.000761 0.000000
0.000333 0.000765 0.000000
0.000339 0.000768 0.000000
0.000346 0.000774 0.000000
0.000346 0.000779 0.000000
0.000354 0.000782 0.000000
0.000354 0.000787 0.000000
0.000360 0.000788 0.000000
0.000025 0.000445 0.000000
0.000026 0.000450 0.000000
0.000026 0.000455 0.000000
0.000025 0.000458 0.000000
0.000025 0.000466 0.000000
0.000026 0.000472 0.000000
0.000023 0.000476 0.000000
0.000027 0.000480 0.000000
0.000024 0.000485 0.000000
0.000026 0.000489 0.000000
0.000027 0.000492 0.000000
0.000028 0.000500 0.000000
0.000254 0.000678 0.000000
0.000280 0.000713 0.000000
0.000280 0.000717 0.000000
0.000292 0.000725 0.000000
0.000298 0.000725 0.000000
0.000299 0.000733 0.000000
0.000310 0.000733 0.000000
0.000305 0.000734 0.000000
0.000312 0.000742 0.000000
0.000317 0.000746 0.000000
0.000318 0.000753 0.000000
0.000324 0.000752 0.000000
0.000326 0.000759 0.000000
0.000337 0.000763 0.000000
0.000342 0.000772 0.000000
0.000343 0.000767 0.000000
0.000351 0.000779 0.000000
0.000351 0.000773 0.000000
0.000358 0.000782 0.000000
0.000363 0.000784 0.000000
0.000030 0.000445 0.000000
0.000031 0.000450 0.000000
0.000029 0.000458 0.000000
0.000033 0.000461 0.000000
0.000029 0.000464 0.000000
0.000031 0.000469 0.000000
0.000031 0.000473 0.000000
0.000031 0.000477 0.000000
0.000031 0.000485 0.000000
0.000032 0.000492 0.000000
0.000034 0.000497 0.000000
0.000031 0.000499 0.000000
0.000049 0.000500 0.000000
0.000278 0.000701 0.000000
0.000292 0.000713 0.000000
0.000294 0.000720 0.000000
0.000297 0.000721 0.000000
0.000302 0.000728 0.000000
0.000311 0.000736 0.000000
0.000317 0.000739 0.000000
0.000317 0.000736 0.000000
0.000325 0.000744 0.000000
0.000328 0.000750 0.000000
0.000334 0.000757 0.000000
0.000339 0.000755 0.000000
0.000339 0.000760 0.000000
0.000344 0.000762 0.000000
0.000348 0.000769 0.000000
0.000357 0.000772 0.000000
0.000356 0.000776 0.000000
0.000361 0.000779 0.000000
0.000366 0.000781 0.000000
0.000035 0.000445 0.000000
0.000035 0.000450 0.000000
0.000038 0.000454 0.000000
0.000034 0.000456 0.000000
0.000035 0.000466 0.000000
0.000037 0.000471 0.000000
0.000033 0.000479 0.000000
0.000042 0.000479 0.000000
0.000035 0.000484 0.000000
0.000035 0.000488 0.000000
0.000038 0.000491 0.000000
0.000036 0.000498 0.000000
0.000245 0.000639 0.000000
0.000252 0.000676 0.000000
0.000289 0.000707 0.000000
0.000297 0.000715 0.000000
0.000305 0.000724 0.000000
0.000307 0.000721 0.000000
0.000307 0.000729 0.000000
0.000314 0.000730 0.000000
0.000320 0.000742 0.000000
0.000323 0.000737 0.000000
0.000331 0.000746 0.000000
0.000335 0.000749 0.000000
0.000335 0.000752 0.000000
0.000348 0.000758 0.000000
0.000349 0.000764 0.000000
0.000354 0.000764 0.000000
0.000354 0.000769 0.000000
0.000360 0.000771 0.000000
0.000364 0.000775 0.000000
0.000369 0.000777 0.000000
0.000040 0.000445 0.000000
0.000040 0.000450 0.000000
0.000038 0.000460 0.000000
0.000042 0.000457 0.000000
0.000041 0.000465 0.000000
0.000040 0.000470 0.000000
0.000043 0.000475 0.000000
0.000037 0.000476 0.000000
0.000042 0.000487 0.000000
0.000043 0.000492 0.000000
0.000042 0.000497 0.000000
0.000045 0.000498 0.000000
0.000245 0.000541 0.000000
0.000273 0.000701 0.000000
0.000285 0.000703 0.000000
0.000301 0.000707 0.000000
0.000302 0.000720 0.000000
0.000310 0.000725 0.000000
0.000316 0.000726 0.000000
0.000319 0.000731 0.000000
0.000327 0.000735 0.000000
0.000328 0.000743 0.000000
0.000332 0.000739 0.000000
0.000339 0.000746 0.000000
0.000342 0.000751 0.000000
0.000347 0.000753 0.000000
0.000344 0.000757 0.000000
0.000353 0.000760 0.000000
0.000359 0.000764 0.000000
0.000363 0.000767 0.000000
0.000367 0.000771 0.000000
0.000372 0.000773 0.000000
0.000045 0.000445 0.000000
0.000046 0.000450 0.000000
0.000045 0.000455 0.000000
0.000046 0.000461 0.000000
0.000045 0.000465 0.000000
0.000046 0.000470 0.000000
0.000046 0.000479 0.000000
0.000040 0.000483 0.000000
0.000051 0.000485 0.000000
0.000046 0.000483 0.000000
0.000048 0.000493 0.000000
0.000051 0.000498 0.000000
0.000245 0.000547 0.000000
0.000263 0.000695 0.000000
0.000289 0.000713 0.000000
0.000302 0.000714 0.000000
0.000305 0.000714 0.000000
0.000314 0.000720 0.000000
0.000321 0.000726 0.000000
0.000323 0.000731 0.000000
0.000329 0.000734 0.000000
0.000335 0.000737 0.000000
0.000336 0.000742 0.000000
0.000345 0.000748 0.000000
0.000341 0.000742 0.000000
0.000352 0.000752 0.000000
0.000355 0.000755 0.000000
0.000359 0.000759 0.000000
0.000363 0.000761 0.000000
0.000366 0.000764 0.000000
0.000370 0.000767 0.000000
0.000375 0.000770 0.000000
0.000050 0.000445 0.000000
0.000051 0.000450 0.000000
0.000050 0.000456 0.000000
0.000051 0.000460 0.000000
0.000050 0.000465 0.000000
0.000052 0.000473 0.000000
0.000050 0.000471 0.000000
0.000051 0.000478 0.000000
0.000047 0.000488 0.000000
0.000053 0.000491 0.000000
0.000058 0.000492 0.000000
0.000054 0.000498 0.000000
0.000245 0.000585 0.000000
0.000266 0.000690 0.000000
0.000276 0.000697 0.000000
0.000298 0.000709 0.000000
0.000311 0.000713 0.000000
0.000311 0.000717 0.000000
0.000321 0.000717 0.000000
0.000318 0.000723 0.000000
0.000332 0.000728 0.000000
0.000328 0.000728 0.000000
0.000338 0.000735 0.000000
0.000346 0.000739 0.000000
0.000345 0.000743 0.000000
0.000350 0.000747 0.000000
0.000356 0.000750 0.000000
0.000360 0.000752 0.000000
0.000364 0.000756 0.000000
0.000369 0.000760 0.000000
0.000373 0.000763 0.000000
0.000378 0.000766 0.000000
0.000055 0.000445 0.000000
0.000056 0.000450 0.000000
0.000055 0.000455 0.000000
0.000056 0.000461 0.000000
0.000055 0.000464 0.000000
0.000056 0.000469 0.000000
0.000056 0.000477 0.000000
0.000058 0.000481 0.000000
0.000054 0.000482 0.000000
0.000057 0.000487 0.000000
0.000056 0.000497 0.000000
0.000060 0.000497 0.000000
0.000245 0.000605 0.000000
0.000260 0.000693 0.000000
0.000270 0.000695 0.000000
[...]
POINT_DATA 9141
SCALARS density float 1
LOOKUP_TABLE default
4429.068786
4429.421512
4427.297639
4425.381392
4422.426939
4429.387543
4444.518570
4434.314784
4440.238411
4422.741211
4432.769369
4397.913679
4431.816317
4440.838668
4451.216500
4427.245096
4438.396102
4432.621293
4445.890837
4444.465855
4437.469038
4428.044666
4406.475391
4446.647863
4425.660881
4419.368506
4446.683188
4431.880477
4419.015627
4449.522427
4441.674651
4449.576782
4429.851695
4426.701445
4425.316152
4433.581151
4439.652717
4412.447286
4407.454885
4415.860944
4414.663498
4419.228750
4448.135145
4400.079393
4417.425019
4448.186374
4405.501109
4427.367764
4412.999403
4410.285988
4429.943870
4450.403945
4419.224291
4434.004149
4432.161257
4400.737228
4435.023688
4396.497749
4392.869902
4410.786102
4408.620131
4416.138843
4412.791623
4423.002531
4422.787530
4432.867838
4439.229917
4412.175627
4434.593642
4434.899028
4463.100911
4404.701261
4474.559627
4366.137518
4473.446902
4404.812875
4373.666968
4462.840037
4429.243224
4395.108858
4421.281508
4421.244548
4428.166114
4408.318469
4436.554270
4414.504129
4410.915797
4424.248732
4400.677370
4417.951489
4451.373819
4394.612174
4441.666511
4425.718758
4447.721968
4406.033616
4431.997788
4447.373115
4447.893722
4442.198282
4434.171511
4379.458186
4456.104502
4366.620668
4475.111274
4386.278190
4516.549275
4400.719295
4435.901006
4375.988458
4434.101198
4453.971995
4396.341859
4466.789659
4448.705338
4417.150450
4436.531938
4430.449561
4433.332871
4441.197796
4418.721760
4447.579357
4462.932967
4490.031262
4448.175984
4378.402583
4516.059690
4450.229240
4435.487555
4417.341888
4431.734253
4405.916750
4463.032596
4446.458797
4450.834144
4446.718320
4463.483749
4370.709014
4467.512282
4437.951992
4420.773507
4392.504844
4461.832068
4378.153669
4509.933296
4441.212431
4423.883633
4450.943565
4419.001841
4421.620366
4421.306985
4429.505690
4419.369390
4423.692621
4378.633876
4461.235232
4438.393600
4437.754991
4325.717516
4449.883453
4427.494034
4431.377340
4429.533393
4442.280872
4445.003686
4389.439006
4460.489395
4375.144144
4429.613265
4462.930856
4420.549427
4425.616262
4429.204534
4459.858992
4392.087322
4350.996161
4460.964669
4443.031430
4446.783566
4424.273425
4407.887514
4437.878400
4448.392875
4436.210029
4456.591331
4443.137029
4366.976069
4480.004102
4459.630703
4384.114332
4446.889407
4417.863601
4437.587384
4421.814126
4418.862388
4446.540823
4415.647634
4450.356697
4435.071486
4456.598423
4438.207363
4388.880137
4460.035918
4423.361675
4422.421015
4426.770219
4445.826406
4481.406838
4424.945807
4389.936596
4433.477415
4458.533144
4434.397921
4454.712634
4408.523005
4414.413221
4416.056251
4436.418245
4388.076611
4444.392018
4471.032702
4403.657720
4407.122411
4438.711617
4437.706151
4421.639075
4429.073073
4414.767329
4420.896607
4414.780412
4439.801843
4453.862094
4432.482726
4438.314857
4421.264665
4445.826409
4526.372455
4423.979741
4422.261339
4382.488812
4456.184459
4431.490373
4434.326160
4417.141507
4427.781752
4385.361550
4414.931519
4443.473723
4445.795800
4425.762310
4425.416114
4456.139445
4420.980176
4451.295981
4409.486910
4426.488569
4422.503276
4432.977140
4436.219762
4391.618410
4433.389106
4438.971013
4438.705625
4414.581552
4443.277339
4432.642449
4433.877840
4423.421836
4681.438889
4354.067275
4448.069687
4445.100289
4406.528255
4426.472760
4441.989515
4432.966634
4455.859411
4444.626894
4418.687070
4430.387858
4419.781014
4428.060487
4455.971346
4452.500918
4382.577989
4425.656656
4416.031416
4437.214950
4432.635613
4411.562294
4430.790341
4426.434764
4443.495947
4400.485652
4434.625823
4418.269457
4451.200524
4414.635170
4465.829834
4437.730356
4533.880582
4411.721970
4440.449269
4462.968981
4433.699402
4433.026584
4409.108834
4440.801803
4441.612444
4440.587245
4428.352926
4423.515772
4404.318568
4416.219718
4414.066261
4430.048476
4450.351209
4454.760797
4423.166087
4416.341729
4435.951414
4423.068024
4439.728197
4434.838541
4396.989226
4469.478846
4452.173117
4375.877225
4385.711032
4422.226521
4531.444305
4411.704899
4475.063302
4480.132340
4453.131147
4450.773725
4433.817315
4435.732581
4435.017115
4443.878209
4443.539379
4421.448685
4448.444659
4429.024503
4449.371453
4441.153988
4458.383090
4452.910592
4436.461792
4405.946020
4430.953626
4429.841600
4427.438583
4432.732960
4405.617286
4428.153199
4449.749840
4408.780237
4406.792039
4452.196976
4488.071153
4356.969202
4420.058004
4389.916518
4549.506581
4413.306757
4520.950686
4430.995629
4453.599940
4422.431545
4412.174436
4444.239358
4419.394871
4456.030773
4451.202725
4428.759840
4420.737483
4399.914844
4424.827669
4422.184603
4449.962772
4431.263856
4432.193565
4417.011048
4426.957185
4417.096864
4436.632135
4409.088104
4409.955076
4457.100100
4445.938569
4395.401706
4464.878464
4407.000455
4451.866301
4440.873156
4415.953275
4450.634489
4445.521412
4406.625635
4384.799077
4430.152180
4442.145558
4449.550829
4415.344920
4462.839994
4421.761928
4460.509816
4417.780578
4444.091687
4449.450477
4449.064605
4420.621859
4422.833985
4423.053276
4429.235834
4432.538771
4412.810774
4422.375696
4434.081404
4445.478986
4397.405630
4429.257324
4408.198738
4450.223805
4364.892549
4419.280443
4437.508936
4565.965246
4423.868976
4443.341294
4386.874691
4441.405718
4420.784397
4425.209127
4452.440511
4407.286127
4422.336896
4424.906409
4439.659136
4394.361190
4443.030612
4399.235528
4439.698838
4430.869964
4433.169044
4427.852586
4424.328050
4429.439401
4433.810176
4427.910974
4403.135304
4435.351828
4442.927464
4433.422231
4442.085897
4389.300025
4458.560544
4441.108280
4448.356433
4684.233435
4416.183094
4418.184630
4467.224488
4444.592008
4414.942741
4451.588225
4451.793401
4407.661353
4435.076894
4415.012846
4438.955496
4416.112650
4449.974617
4419.558426
4441.873138
4421.515655
4423.285531
4426.430799
4426.310537
4437.641213
4418.787447
4427.518952
4447.953835
4415.142985
4402.600756
4445.147975
4455.106351
4456.479141
4374.998018
4420.798967
4451.571304
4427.552554
4423.296101
4420.427827
4350.621883
4432.437976
4486.551852
4443.888495
4429.553138
4466.193953
4465.879245
4447.225112
4422.872069
4469.306178
4455.154069
4446.957177
4420.208855
4422.849841
4434.717564
4418.202876
4427.752566
4429.681905
4412.807503
4427.217850
4404.068886
4435.997143
4450.225984
4412.412879
4447.092855
4392.947601
4513.267221
4390.858381
4424.976484
4422.384624
4500.365497
4500.032855
4422.787919
4446.278165
4421.400573
4452.574626
4417.610350
4416.354461
4449.416561
4411.398785
4442.948382
4422.671999
4445.124696
4419.383168
4440.188874
4436.222758
4439.104496
4425.663236
4426.639717
4442.792007
4419.687188
4431.651110
4449.420574
4428.988543
4396.997774
4436.612118
4421.020222
4435.268943
4416.983652
4443.771218
4457.580872
4463.348002
4513.383495
4484.220264
4440.285702
4437.794746
4382.703842
4469.644253
4442.631390
4446.551390
4472.766994
4451.238952
4422.829680
4416.527990
4446.480981
4421.205525
4428.555511
4411.867139
4421.802941
4431.778127
4428.456563
4415.766850
4423.019695
4446.620916
4405.628815
4417.741710
4433.571600
4441.019851
4453.672939
4429.229947
4427.734676
4398.220498
4426.922559
4411.821607
4420.799804
4422.539395
4389.966649
4429.023902
4400.980578
4468.900387
4403.444774
4411.206746
4412.089007
4432.898856
4422.923092
4463.101940
4412.674288
4454.382488
4424.709154
4457.634632
4432.281508
4420.354332
4425.628166
4442.766544
4426.196213
4418.621464
4454.858639
4430.872299
4425.679007
4419.957282
4414.354299
4451.294239
4445.872654
4434.570645
4430.471307
4405.388469
4396.766033
4481.117212
4400.478155
4422.083493
4448.038174
4430.069650
4386.475609
4492.020828
4416.718805
4429.184201
4419.100609
4438.188139
4425.416143
4432.317669
4424.417994
4408.357767
4429.338648
4427.321481
4425.008706
4413.436631
4422.736896
4436.685406
4403.446527
4443.910102
4417.055081
4409.814735
4387.296732
4453.112156
4482.230889
4377.016955
4562.598661
4487.076759
4453.555706
4456.755682
4449.052457
4408.718450
4441.542583
4392.631954
4473.725635
4425.297047
4480.640887
4446.024913
4415.599746
4420.083736
4462.182806
4400.900237
4478.055345
4439.141972
4406.956133
4438.550137
4421.426550
4451.353638
4445.930845
4416.112814
4426.488452
4432.866031
4404.698306
4446.336818
4416.652897
4458.483532
4378.861531
4430.671041
4426.661579
4437.780854
4406.701967
4407.168433
4394.415187
4416.456268
4469.133545
4506.121465
4456.423381
4415.233198
4366.354471
4438.019840
4468.326968
4446.101024
4409.283433
4442.201474
4423.917124
4425.941756
4424.926193
4428.459479
4434.481925
4417.718074
4422.107578
4432.073707
4431.399592
4441.104279
4409.806117
4438.453678
4408.364288
4450.035867
4376.627986
4361.769429
4492.867279
4422.678434
4451.436251
4461.059410
4465.785735
4451.813615
4447.786638
4423.058336
4421.984595
4379.357290
4400.925233
4383.540558
4446.834558
4438.696781
4407.807238
4465.082560
4429.728595
4467.127966
4426.390138
4407.761610
4427.176689
4445.842605
4437.118987
4407.050945
4413.446432
4407.346639
4431.716877
4436.425466
4438.376715
4458.897187
4455.252758
4426.164230
4426.124209
4428.315638
4458.189901
4367.710780
4393.165621
4496.710138
4465.339745
4429.949331
4407.200158
4450.633760
4436.111080
4413.771347
4427.194331
4452.638067
4464.284132
4426.104316
4428.920704
4421.602722
4415.393241
4446.977946
4425.783742
4414.433902
4427.912319
4427.418898
4428.017472
4428.705268
4428.838318
4429.324540
4429.432534
4429.849229
4429.995141
4430.418727
4430.459063
4430.697219
4430.647390
4429.956651
4418.550215
4426.334598
4426.411660
4427.402495
4428.095352
4428.405326
4429.089416
4429.191858
4429.725919
4429.622094
4429.997551
4430.088661
4430.372761
4430.450086
4430.707615
4421.748716
4426.287578
4426.058894
4426.807893
4427.813338
4427.807008
4428.572159
4428.513644
4429.177255
4429.188802
4429.885283
4429.520535
4429.573410
4429.936933
4429.332305
4423.195387
4426.659404
4426.507135
4427.155647
4427.773851
4428.000028
4428.608646
4428.697219
4429.118060
4428.971021
4429.114198
4428.994214
4429.522010
4428.511038
4429.440245
4424.842136
4426.919831
4426.851004
4426.962238
4427.664754
4427.592358
4428.251660
4428.058204
4428.722052
4428.549796
4429.335530
4428.630391
4429.323899
4427.708785
4428.935872
4425.318533
4427.252255
4427.223333
4427.122507
4428.059115
4427.653544
4428.583356
4428.152017
4428.995196
4428.258635
4428.891682
4428.251670
4428.852179
4427.576815
4428.681478
4425.802622
4427.513489
4427.213048
4427.334975
4427.610743
4427.586468
4428.023611
4427.911104
4428.269358
4428.420199
4428.719315
4428.593331
4428.492837
4427.715829
4428.821028
4426.182797
4427.767912
4427.402595
4427.529237
4427.844814
4427.953101
4428.084793
4428.294348
4428.443736
4428.297113
4428.454136
4428.198789
4428.560379
4427.568425
4428.010761
4426.230261
4427.793718
4427.464177
4427.437494
4427.729425
4427.426572
4428.022377
4427.624770
4428.209629
4428.049429
4428.846880
4428.409218
4429.281794
4428.301603
4428.272615
4426.629483
4427.925530
4427.605819
4427.583328
4427.902373
4427.825394
4428.066163
4428.006886
4428.294900
4428.158083
4428.249223
4428.631521
4428.835119
4428.847435
4431.338259
4426.409095
4427.968167
4427.513410
4427.530870
4427.584516
4427.518268
4427.620565
4427.633806
4427.767720
4427.912455
4428.576089
4428.316964
4429.774635
4429.283030
4429.919499
4426.578426
4428.127167
4427.449549
4427.716572
4427.752280
4427.681181
4427.889551
4427.679756
4428.032218
4427.780721
4427.988261
4428.116007
4428.690949
4429.083054
4430.892600
4426.656667
4427.971165
4427.588225
4427.499385
4427.417764
4427.469793
4427.301881
4427.491004
4427.314062
4427.664275
4427.631100
4427.976546
4428.378416
4428.823365
4429.331231
4438.875731
4438.145956
4408.578466
4459.182633
4446.706923
4447.801501
4430.984756
4441.696621
4406.272804
4449.893023
4396.384279
4461.102681
4409.065720
4453.608330
4423.961804
4407.837107
4426.691715
4428.049894
4427.529058
4427.541138
4427.685003
4427.460756
4427.613492
4427.443967
4427.508513
4427.219991
4427.354901
4427.097760
4426.941048
4427.525520
4427.386219
4424.379653
4455.832159
4415.867721
4431.174697
4420.748876
4432.305738
4413.043132
4416.496157
4456.145168
4426.437610
4423.928492
4457.765728
4434.578996
4451.718743
4404.860232
4403.586359
4426.431379
4427.899100
4427.548160
4427.325952
4427.425161
4426.990056
4427.399882
4426.618872
4427.279463
4426.631832
4427.234933
4426.608862
4427.288170
4425.711655
4428.513399
4422.191312
4450.981650
4435.068546
4394.148757
4393.559105
4443.831599
4507.276645
4419.597148
4455.435603
4448.054755
4440.267361
4415.203132
4413.532636
4447.520942
4386.716267
4440.301387
4426.572903
4427.924469
4427.598451
4427.219780
4427.636084
4427.196622
4427.265628
4427.174078
4427.028298
4426.688681
4426.809736
4425.884242
4426.424113
4423.855708
4426.671271
4421.285187
4417.136788
4418.246922
4374.797997
4394.332472
4446.903839
4406.075491
4454.053053
4389.352805
4436.633332
4423.173132
4421.605515
4399.570392
4431.245407
4444.385358
4419.617461
4426.255568
4427.981077
4427.256237
4427.426683
4427.102945
4426.890894
4427.042610
4426.507779
4426.711628
4426.522462
4426.311433
4425.577320
4425.508375
4423.938442
4421.492798
4438.890514
4464.915915
4421.862498
4438.464627
4456.991556
4431.520178
4455.082463
4448.218708
4428.777056
4415.565719
4445.885654
4443.403731
4392.519457
4369.749956
4431.442424
4407.755079
4426.297615
4428.022971
4427.289480
4427.327315
4427.177468
4427.260196
4426.900924
4426.973533
4426.876314
4426.192908
4426.133688
4425.704831
4424.774954
4423.292000
4422.417833
4413.251739
4395.197517
4450.487461
4427.601312
4502.576529
4397.620570
4469.202437
4416.820861
4436.222260
4427.392151
4403.026520
4446.675416
4408.604071
4457.594279
4437.192023
4426.243859
4426.478130
4427.783475
4427.442000
4427.102242
4427.216318
4426.711645
4426.873396
4426.786827
4426.121770
4426.888050
4425.536484
4425.633835
4425.272295
4423.847598
4423.460269
4451.119591
4441.442239
4451.712269
4380.412255
4334.003247
4448.306279
4495.401707
4536.416542
4460.968244
4419.286393
4440.255445
4438.884884
4488.120554
4439.686185
4485.610780
4408.486883
4426.324690
4427.973202
4427.234878
4427.363684
4427.049144
4427.177097
4427.068109
4426.579901
4427.215133
4425.704955
4426.884947
4425.533932
4425.764361
4425.547930
4424.860565
4436.973815
4415.435991
4428.127406
4386.654562
4413.688559
4467.076605
4474.036739
4350.791095
4383.779890
4428.376361
4456.289283
4453.502792
4408.074393
4453.187750
4405.631148
4423.156123
4426.254502
4427.751046
4427.431792
4426.902287
4427.472162
4426.584359
4427.227343
4426.530023
4426.843037
4426.399756
4426.433511
4426.198714
4426.387189
4426.204205
4427.311565
4430.994815
4446.014490
4388.502493
4428.238352
4408.183889
4434.428189
4456.945209
4459.201361
4473.961816
4454.967259
4413.253531
4372.765573
4400.590633
4447.502491
4404.327388
4416.700867
4426.385948
4427.708286
4427.629532
4426.981997
4427.598104
4426.848661
4427.331619
4426.783957
4426.671991
4426.523111
4426.555508
4425.871218
4427.162959
4425.602726
4426.366657
4436.453888
4435.054332
4427.958976
4441.290438
4361.610015
4401.643012
4486.646341
4474.931789
4478.184358
4419.478714
4425.541591
4457.469086
4408.528680
4445.693549
4424.042112
4435.296837
4426.349806
4427.980528
4427.261756
4427.472616
4427.023167
4427.177861
4426.931124
4426.473871
4427.144312
4425.818453
4426.866320
4426.250630
4425.886112
4425.576686
4425.490405
4429.133187
4426.073056
4411.982520
4419.093158
4473.637529
4417.963150
4493.120963
4508.156115
4468.939110
4434.309170
4430.090342
4431.138587
4431.917286
4441.861020
4371.983992
4404.390803
4426.498484
4428.012503
4427.389248
4427.237679
4427.483816
4426.872474
4427.185233
4426.862617
4426.418366
4426.862624
4426.613921
4425.983364
4426.574411
4425.064591
4424.686602
4444.562513
4440.148319
4416.420902
4438.887792
4389.017699
4415.790689
4462.249103
4498.417533
4485.439755
4478.631816
4471.968973
4416.538458
4418.183276
4389.526937
4279.192292
4444.022440
4426.649309
4427.792608
4427.808099
4427.122149
4427.414393
4426.968310
4427.021773
4426.652617
4427.157025
4426.575457
4426.615096
4426.413391
4426.219924
4426.051634
4426.368378
4430.350257
4414.074990
4455.375768
4446.889077
4419.983808
4474.339184
4446.197098
4483.610756
4444.371269
4434.852328
4460.900916
4465.283987
4392.156293
4428.490290
4506.008408
4444.379357
4426.589285
4428.171116
4427.453967
4427.582460
4427.378770
4427.151619
4427.487015
4426.965281
4427.193690
4426.459676
4426.952011
4425.848805
4426.421204
4425.165977
4425.953668
4431.386351
4402.897455
4427.765363
4421.630944
4458.257889
4430.461639
4467.491376
4447.500308
4449.583178
4443.085169
4459.932389
4424.614706
4438.168914
4404.380430
4414.556835
4430.765578
4426.517437
4428.289585
4427.593360
4427.402611
4427.681333
4427.316689
4427.241568
4427.130403
4426.883971
4426.767654
4426.014781
4426.281553
4426.282238
4426.298010
4425.909766
4432.783627
4425.790810
4419.994032
4451.167124
4399.479146
4413.483422
4445.726188
4446.474237
4438.152399
4460.566183
4463.594107
4474.289007
4423.284103
4438.655660
4410.506844
4424.902799
4426.734320
4428.351303
4427.674152
4428.138618
4427.369152
4427.811381
4427.296915
4427.317910
4426.994663
4426.425647
4427.005186
4425.997468
4426.535339
4426.576134
4426.567543
4429.351212
4429.076842
4413.848808
4440.654974
4429.066891
4430.790517
4462.324588
4480.564842
4456.147183
4436.441352
4471.311389
4459.805471
4458.448648
4406.891988
4427.837739
4424.504631
4427.028587
4428.688724
4427.750665
4428.011635
4427.762204
4427.785478
4427.429170
4427.510932
4427.037864
4427.370105
4426.212860
4426.843260
4426.084146
4425.367224
4426.359335
4429.873730
4435.913714
4417.923175
4404.621624
4445.938250
4468.769011
4428.955374
4432.825460
4448.627753
4430.238702
4425.230635
4464.357529
4440.120075
4434.191973
4394.005833
4421.725260
4427.188648
4428.592916
4428.174207
4428.132742
4428.094993
4427.836799
4427.779935
4427.531131
4427.274572
4426.674222
4426.753976
4426.209429
4425.258102
4425.357616
4424.047892
4426.027907
4417.314848
4432.824663
4434.561432
4422.090880
4407.256126
4450.969931
4431.243243
4442.330841
4436.393630
4475.486185
4443.361105
4473.477341
4464.368759
4438.286759
4449.802068
4427.609840
4428.758585
4428.376784
4428.456579
4427.976914
4428.115499
4427.694630
4427.503557
4427.257397
4426.968574
4426.830754
4425.976319
4426.677382
4425.230179
4424.028668
4414.145530
4428.578704
4423.991301
4463.322254
4443.347261
4457.489372
4446.518138
4466.143863
4439.359191
4439.520655
4428.726473
4450.488787
4443.430586
4440.804747
4466.313257
4428.284831
4427.723833
4429.155327
4428.441060
4428.576338
4428.372650
4428.261777
4427.947039
4428.046922
4427.498423
4427.634539
4426.497158
4427.494393
4424.724883
4424.675080
4427.346444
4432.948442
4408.264021
4419.782660
4420.465582
4423.327422
4424.015776
4440.501484
4456.993880
4450.683201
4449.727693
4423.154139
4444.664158
4444.104249
4437.273931
4452.741802
4419.935204
4428.023276
4429.197941
4428.722896
4428.807427
4428.572654
4428.514233
4428.475165
4428.206712
4428.126261
4427.570249
4427.897845
4425.725589
4427.058142
4426.879926
4423.701272
4428.935645
4429.124549
4445.937851
4438.568573
4432.757919
4413.357715
4457.939989
4414.053264
4456.231640
4449.574380
4462.225218
4442.995631
4441.113140
4426.342869
4361.281061
4452.443346
4428.500731
4429.441593
4429.069933
4429.216828
4428.863655
4429.084573
4428.590584
4428.527827
4428.311728
4427.954181
4426.906633
4427.531267
4426.334493
4424.887752
4426.881083
4420.822414
4416.357517
4435.493120
4424.873504
4431.284106
4450.379013
4443.357462
4462.963459
4411.729642
4455.468726
4457.383299
4445.205164
4437.292016
4399.040272
4551.794081
4459.772398
4428.991337
4429.782683
4429.257690
4429.512149
4429.121168
4429.311208
4428.723074
4429.290978
4428.033014
4428.966892
4427.620535
4427.310573
4426.282042
4426.617711
4427.323949
4441.417246
4422.520468
4428.982632
4425.121722
4408.014960
4425.277680
4412.771787
4453.974864
4452.384959
4408.702512
4445.598469
4466.002993
4428.945511
4413.885578
4464.368775
4433.582746