# vtk DataFile Version 2.0
mfree iwf
ASCII

DATASET UNSTRUCTURED_GRID
POINTS 11907 float
-0.000000 0.000445 0.000000
-0.000000 0.000450 0.000000
-0.000000 0.000455 0.000000
-0.000000 0.000460 0.000000
-0.000000 0.000465 0.000000
-0.000000 0.000470 0.000000
-0.000000 0.000475 0.000000
-0.000000 0.000480 0.000000
-0.000000 0.000485 0.000000
0.000000 0.000490 0.000000
-0.000000 0.000496 0.000000
0.000002 0.000500 0.000000
0.001356 0.001081 0.000000
0.001364 0.001078 0.000000
0.001406 0.001055 0.000000
0.001410 0.001052 0.000000
0.001409 0.001052 0.000000
0.001416 0.001048 0.000000
0.001422 0.001043 0.000000
0.001418 0.001047 0.000000
0.001429 0.001038 0.000000
0.001451 0.001022 0.000000
0.001455 0.001016 0.000000
0.001458 0.001013 0.000000
0.001460 0.001009 0.000000
0.001463 0.001004 0.000000
0.001466 0.001000 0.000000
0.001468 0.000996 0.000000
0.001470 0.000992 0.000000
0.001474 0.000987 0.000000
0.001477 0.000982 0.000000
0.001494 0.000968 0.000000
0.000005 0.000445 0.000000
0.000005 0.000450 0.000000
0.000005 0.000455 0.000000
0.000005 0.000460 0.000000
0.000005 0.000465 0.000000
0.000005 0.000470 0.000000
0.000005 0.000475 0.000000
0.000005 0.000480 0.000000
0.000005 0.000485 0.000000
0.000006 0.000489 0.000000
0.000003 0.000496 0.000000
0.000006 0.000499 0.000000
0.001401 0.001057 0.000000
0.001403 0.001047 0.000000
0.001434 0.001032 0.000000
0.001440 0.001028 0.000000
0.001444 0.001025 0.000000
0.001446 0.001022 0.000000
0.001448 0.001020 0.000000
0.001449 0.001016 0.000000
0.001452 0.001012 0.000000
0.001455 0.001007 0.000000
0.001460 0.001001 0.000000
0.001463 0.000996 0.000000
0.001466 0.000990 0.000000
0.001471 0.000983 0.000000
0.001473 0.000979 0.000000
0.001477 0.000975 0.000000
0.001486 0.000969 0.000000
0.001488 0.000968 0.000000
0.001484 0.000972 0.000000
0.001491 0.000966 0.000000
0.000010 0.000445 0.000000
0.000010 0.000450 0.000000
0.000010 0.000455 0.000000
0.000010 0.000460 0.000000
0.000010 0.000465 0.000000
0.000010 0.000469 0.000000
0.000010 0.000475 0.000000
0.000010 0.000479 0.000000
0.000009 0.000486 0.000000
0.000012 0.000489 0.000000
0.000008 0.000497 0.000000
0.000011 0.000498 0.000000
0.001399 0.001053 0.000000
0.001406 0.001045 0.000000
0.001421 0.001039 0.000000
0.001428 0.001035 0.000000
0.001431 0.001032 0.000000
0.001436 0.001029 0.000000
0.001426 0.001029 0.000000
0.001432 0.001024 0.000000
0.001438 0.001021 0.000000
0.001443 0.001017 0.000000
0.001450 0.001009 0.000000
0.001454 0.001004 0.000000
0.001452 0.000998 0.000000
0.001456 0.000994 0.000000
0.001461 0.000992 0.000000
0.001468 0.000985 0.000000
0.001478 0.000972 0.000000
0.001480 0.000970 0.000000
0.001484 0.000964 0.000000
0.001484 0.000958 0.000000
0.000015 0.000445 0.000000
0.000016 0.000450 0.000000
0.000014 0.000456 0.000000
0.000017 0.000460 0.000000
0.000014 0.000469 0.000000
0.000016 0.000465 0.000000
0.000014 0.000476 0.000000
0.000017 0.000480 0.000000
0.000014 0.000484 0.000000
0.000016 0.000489 0.000000
0.000014 0.000495 0.000000
0.000016 0.000497 0.000000
0.000025 0.000500 0.000000
0.001409 0.001044 0.000000
0.001423 0.001036 0.000000
0.001417 0.001035 0.000000
0.001429 0.001026 0.000000
0.001439 0.001026 0.000000
0.001438 0.001017 0.000000
0.001445 0.001012 0.000000
0.001441 0.001010 0.000000
0.001446 0.001006 0.000000
0.001452 0.000992 0.000000
0.001457 0.001001 0.000000
0.001459 0.000986 0.000000
0.001464 0.000986 0.000000
0.001464 0.000980 0.000000
0.001468 0.000979 0.000000
0.001470 0.000972 0.000000
0.001474 0.000970 0.000000
0.001476 0.000965 0.000000
0.001482 0.000956 0.000000
0.000019 0.000445 0.000000
0.000021 0.000450 0.000000
0.000018 0.000455 0.000000
0.000022 0.000459 0.000000
0.000019 0.000469 0.000000
0.000024 0.000468 0.000000
0.000018 0.000475 0.000000
0.000022 0.000479 0.000000
0.000019 0.000486 0.000000
0.000021 0.000490 0.000000
0.000020 0.000497 0.000000
0.000022 0.000499 0.000000
0.000039 0.000500 0.000000
0.001403 0.001034 0.000000
0.001411 0.001038 0.000000
0.001417 0.001030 0.000000
0.001423 0.001033 0.000000
0.001432 0.001019 0.000000
0.001428 0.001015 0.000000
0.001440 0.001007 0.000000
0.001432 0.001013 0.000000
0.001443 0.001002 0.000000
0.001441 0.000993 0.000000
0.001444 0.000987 0.000000
0.001450 0.000987 0.000000
0.001459 0.000981 0.000000
0.001461 0.000970 0.000000
0.001468 0.000970 0.000000
0.001468 0.000965 0.000000
0.001476 0.000959 0.000000
0.001480 0.000961 0.000000
0.001478 0.000953 0.000000
0.000024 0.000445 0.000000
0.000026 0.000450 0.000000
0.000024 0.000455 0.000000
0.000026 0.000461 0.000000
0.000021 0.000464 0.000000
0.000026 0.000472 0.000000
0.000022 0.000476 0.000000
0.000027 0.000481 0.000000
0.000023 0.000485 0.000000
0.000026 0.000488 0.000000
0.000026 0.000492 0.000000
0.000027 0.000500 0.000000
0.001383 0.001069 0.000000
0.001411 0.001041 0.000000
0.001416 0.001039 0.000000
0.001427 0.001021 0.000000
0.001423 0.001024 0.000000
0.001437 0.001014 0.000000
0.001434 0.001008 0.000000
0.001425 0.001018 0.000000
0.001430 0.001004 0.000000
0.001449 0.001003 0.000000
0.001445 0.000996 0.000000
0.001448 0.000998 0.000000
0.001456 0.000990 0.000000
0.001455 0.000983 0.000000
0.001465 0.000974 0.000000
0.001460 0.000976 0.000000
0.001472 0.000963 0.000000
0.001464 0.000966 0.000000
0.001472 0.000957 0.000000
0.001473 0.000950 0.000000
0.000030 0.000445 0.000000
0.000031 0.000450 0.000000
0.000029 0.000455 0.000000
0.000031 0.000459 0.000000
0.000031 0.000464 0.000000
0.000028 0.000468 0.000000
0.000031 0.000472 0.000000
0.000030 0.000477 0.000000
0.000030 0.000486 0.000000
0.000031 0.000491 0.000000
0.000033 0.000497 0.000000
0.000030 0.000499 0.000000
0.000048 0.000500 0.000000
0.001401 0.001042 0.000000
0.001411 0.001028 0.000000
0.001419 0.001025 0.000000
0.001415 0.001025 0.000000
0.001420 0.001019 0.000000
0.001425 0.001008 0.000000
0.001436 0.000995 0.000000
0.001437 0.001003 0.000000
0.001439 0.000998 0.000000
0.001447 0.000990 0.000000
0.001447 0.000977 0.000000
0.001452 0.000982 0.000000
0.001452 0.000977 0.000000
0.001455 0.000968 0.000000
0.001458 0.000973 0.000000
0.001462 0.000960 0.000000
0.001467 0.000959 0.000000
0.001469 0.000954 0.000000
0.001470 0.000948 0.000000
0.000035 0.000445 0.000000
0.000035 0.000450 0.000000
0.000034 0.000457 0.000000
0.000038 0.000454 0.000000
0.000035 0.000467 0.000000
0.000036 0.000472 0.000000
0.000032 0.000479 0.000000
0.000041 0.000479 0.000000
0.000034 0.000483 0.000000
0.000034 0.000488 0.000000
0.000037 0.000491 0.000000
0.000036 0.000498 0.000000
0.001343 0.001084 0.000000
0.001379 0.001071 0.000000
0.001407 0.001033 0.000000
0.001410 0.001022 0.000000
0.001423 0.001013 0.000000
0.001410 0.001012 0.000000
0.001430 0.001009 0.000000
0.001426 0.001004 0.000000
0.001434 0.001001 0.000000
0.001424 0.000995 0.000000
0.001431 0.000986 0.000000
0.001439 0.000979 0.000000
0.001446 0.000982 0.000000
0.001449 0.000973 0.000000
0.001459 0.000964 0.000000
0.001449 0.000958 0.000000
0.001461 0.000953 0.000000
0.001463 0.000957 0.000000
0.001466 0.000951 0.000000
0.001465 0.000945 0.000000
0.000040 0.000445 0.000000
0.000041 0.000450 0.000000
0.000036 0.000462 0.000000
0.000040 0.000458 0.000000
0.000041 0.000463 0.000000
0.000039 0.000468 0.000000
0.000041 0.000473 0.000000
0.000037 0.000477 0.000000
0.000041 0.000487 0.000000
0.000042 0.000491 0.000000
0.000041 0.000497 0.000000
0.000044 0.000498 0.000000
0.001189 0.001065 0.000000
0.001399 0.001049 0.000000
0.001399 0.001038 0.000000
0.001405 0.001020 0.000000
0.001418 0.001015 0.000000
0.001417 0.001011 0.000000
0.001420 0.001008 0.000000
0.001429 0.000997 0.000000
0.001434 0.000988 0.000000
0.001439 0.000989 0.000000
0.001432 0.000993 0.000000
0.001431 0.000975 0.000000
0.001440 0.000971 0.000000
0.001445 0.000967 0.000000
0.001452 0.000972 0.000000
0.001450 0.000966 0.000000
0.001455 0.000962 0.000000
0.001457 0.000956 0.000000
0.001462 0.000949 0.000000
0.001461 0.000942 0.000000
0.000044 0.000445 0.000000
0.000046 0.000450 0.000000
0.000045 0.000455 0.000000
0.000046 0.000461 0.000000
0.000044 0.000467 0.000000
0.000047 0.000474 0.000000
0.000045 0.000478 0.000000
0.000039 0.000483 0.000000
0.000052 0.000485 0.000000
0.000045 0.000483 0.000000
0.000048 0.000493 0.000000
0.000050 0.000498 0.000000
0.001195 0.001069 0.000000
0.001397 0.001059 0.000000
0.001412 0.001032 0.000000
0.001414 0.001018 0.000000
0.001411 0.001016 0.000000
0.001422 0.001001 0.000000
0.001417 0.001001 0.000000
0.001425 0.000997 0.000000
0.001424 0.000987 0.000000
0.001435 0.000984 0.000000
0.001441 0.000984 0.000000
0.001444 0.000972 0.000000
0.001437 0.000976 0.000000
0.001444 0.000965 0.000000
0.001452 0.000962 0.000000
0.001452 0.000955 0.000000
0.001452 0.000951 0.000000
0.001456 0.000950 0.000000
0.001457 0.000946 0.000000
0.001457 0.000940 0.000000
0.000049 0.000445 0.000000
0.000053 0.000450 0.000000
0.000049 0.000454 0.000000
0.000053 0.000455 0.000000
0.000048 0.000465 0.000000
0.000048 0.000471 0.000000
0.000053 0.000468 0.000000
0.000051 0.000478 0.000000
0.000047 0.000488 0.000000
0.000052 0.000491 0.000000
0.000057 0.000492 0.000000
0.000053 0.000498 0.000000
0.001286 0.001089 0.000000
0.001388 0.001058 0.000000
0.001396 0.001046 0.000000
0.001405 0.001023 0.000000
0.001412 0.001009 0.000000
0.001416 0.001005 0.000000
0.001410 0.001004 0.000000
0.001415 0.000998 0.000000
0.001419 0.000988 0.000000
0.001428 0.000990 0.000000
0.001423 0.000986 0.000000
0.001433 0.000980 0.000000
0.001430 0.000968 0.000000
0.001442 0.000977 0.000000
0.001439 0.000961 0.000000
0.001439 0.000953 0.000000
0.001444 0.000960 0.000000
0.001448 0.000948 0.000000
0.001453 0.000943 0.000000
0.001453 0.000937 0.000000
0.000053 0.000445 0.000000
0.000058 0.000450 0.000000
0.000055 0.000462 0.000000
0.000050 0.000460 0.000000
0.000060 0.000466 0.000000
0.000054 0.000473 0.000000
0.000057 0.000476 0.000000
0.000057 0.000480 0.000000
0.000052 0.000483 0.000000
0.000057 0.000486 0.000000
0.000056 0.000497 0.000000
0.000059 0.000496 0.000000
0.001310 0.001087 0.000000
0.001396 0.001060 0.000000
[...]
POINT_DATA 11907
SCALARS density float 1
LOOKUP_TABLE default
4427.580717
4429.974620
4425.302564
4429.188733
4431.793022
4426.639245
4436.940423
4428.534227
4431.612485
4420.102687
4429.755842
4405.369886
4432.348658
4416.429396
4415.456163
4442.727748
4440.416980
4435.719493
4452.634099
4453.867749
4427.688904
4413.145436
4397.367502
4447.396454
4424.338444
4434.752001
4450.817045
4419.436690
4437.974122
4450.852724
4427.546247
4402.494292
4431.831641
4431.326692
4430.070734
4425.714845
4431.491755
4420.249913
4424.475271
4420.276465
4422.887364
4427.869067
4449.437338
4408.499960
4411.772497
4422.530861
4423.789509
4412.900076
4425.767681
4435.731363
4448.986760
4473.703460
4439.353007
4415.729393
4423.703934
4394.568386
4433.461722
4394.520763
4437.976902
4459.510464
4430.136670
4432.436122
4412.893686
4396.438361
4420.836862
4425.826806
4432.903958
4421.269035
4431.768302
4425.233160
4456.632477
4399.365425
4469.255964
4384.106187
4448.143529
4403.297594
4469.220296
4445.915468
4433.067925
4397.723375
4419.072012
4411.823498
4468.740626
4456.459350
4437.549374
4372.921495
4425.286012
4438.654733
4395.188910
4457.787370
4425.761343
4376.636143
4416.938741
4423.908116
4446.036971
4415.343993
4424.765309
4437.601325
4444.537304
4417.641033
4415.655154
4449.912930
4448.541112
4390.141695
4463.671493
4386.251711
4509.121129
4406.113419
4434.344948
4389.651142
4412.007037
4466.709164
4447.646914
4434.335625
4452.602272
4371.981318
4447.208131
4426.228300
4420.426072
4432.980651
4395.173389
4484.361445
4427.044532
4486.728929
4433.699220
4373.898009
4493.927277
4435.351690
4436.523273
4421.137242
4440.848704
4431.231904
4408.026779
4432.747333
4436.581807
4433.915220
4479.049350
4374.668431
4460.657437
4432.909469
4417.712791
4434.538654
4466.795656
4382.743830
4468.411771
4391.920383
4452.127116
4444.377164
4429.789875
4384.197700
4421.536909
4444.916350
4423.963314
4431.513889
4455.676749
4475.291915
4427.328182
4409.001205
4389.902006
4425.254068
4433.121643
4430.353734
4440.314718
4414.322790
4438.974384
4420.034579
4453.190320
4384.258471
4418.992160
4460.085087
4426.964543
4422.528963
4436.773515
4433.357219
4368.687069
4434.717110
4395.878464
4459.862350
4367.081547
4473.264453
4469.928141
4456.126587
4453.316405
4447.651951
4441.925306
4445.210942
4371.165978
4422.668271
4422.962017
4397.592366
4460.258284
4427.778467
4422.589056
4430.958797
4415.481772
4439.280499
4432.423878
4449.600465
4398.426480
4451.587280
4447.878194
4408.398064
4450.857329
4417.363245
4415.890837
4446.368664
4460.212883
4460.958330
4415.832799
4423.528647
4425.669367
4416.830060
4451.642648
4444.479189
4421.509340
4434.923711
4467.325622
4375.921556
4398.004437
4447.712279
4452.727114
4417.282692
4402.815674
4448.068444
4426.680253
4435.954953
4441.632755
4425.298200
4427.429548
4437.196467
4441.014001
4431.781707
4399.582336
4430.381787
4418.744747
4444.832669
4418.281288
4423.724708
4388.122830
4410.872885
4406.748629
4477.317668
4448.619957
4434.340342
4420.748979
4453.893668
4405.490569
4435.666014
4391.617757
4471.163160
4422.897652
4392.482268
4458.363648
4418.964336
4415.451053
4413.288560
4431.143144
4427.078426
4414.656944
4442.986620
4424.600531
4439.589855
4425.708738
4428.593708
4450.277459
4426.632204
4435.782561
4421.711129
4435.776937
4452.723151
4395.615796
4438.173450
4424.043897
4463.490302
4446.256458
4408.873242
4457.753621
4403.903647
4446.532858
4415.008545
4406.344926
4435.149197
4435.119460
4409.019423
4476.349453
4357.366779
4442.907659
4429.291573
4430.886141
4419.688577
4418.700363
4452.059157
4420.948220
4440.079010
4435.308437
4433.036657
4456.093976
4414.931088
4472.902903
4432.569160
4435.163904
4438.339364
4411.560881
4446.137841
4389.559149
4390.202333
4460.744804
4466.128695
4454.192281
4436.476832
4421.623969
4411.289747
4435.715682
4449.771418
4445.137592
4461.326834
4444.503674
4431.483642
4410.629425
4452.057514
4427.048110
4411.375858
4460.229797
4417.386593
4431.337973
4453.585085
4398.876884
4384.430104
4392.740812
4419.804451
4517.596309
4411.674559
4438.098167
4432.421316
4405.189261
4459.887459
4359.248380
4420.640864
4440.571751
4413.860648
4396.866322
4402.159167
4449.025967
4420.720652
4406.102860
4437.198617
4420.635580
4420.989688
4428.894210
4420.606528
4413.955306
4422.143326
4438.349166
4426.118199
4477.991873
4403.962875
4412.824403
4446.141849
4424.668754
4421.361787
4472.861361
4353.852582
4416.299685
4402.595414
4436.035601
4428.301275
4440.107695
4412.204404
4433.316757
4458.953105
4375.502768
4418.888077
4444.456304
4418.988266
4440.434839
4445.710393
4465.623004
4420.702941
4473.857241
4401.352751
4440.817579
4433.164796
4443.447387
4417.972343
4420.354100
4406.025799
4452.697233
4427.074562
4386.766634
4433.575298
4434.337383
4382.371823
4444.965110
4424.718939
4444.666965
4435.896844
4423.975537
4433.129187
4421.016140
4366.520968
4378.672900
4447.220678
4446.898021
4466.856816
4460.256787
4447.126408
4423.504171
4429.069009
4442.726761
4448.423629
4440.011783
4410.907785
4435.323885
4404.358134
4442.970736
4438.342142
4443.620235
4436.045633
4431.970500
4442.355861
4448.596359
4420.134557
4402.333126
4465.722860
4474.441778
4405.384871
4427.164395
4439.057895
4416.984796
4429.037174
4393.953257
4369.365526
4431.658169
4383.197081
4444.899713
4401.027492
4423.376348
4418.433003
4468.443550
4417.162195
4443.858174
4450.908780
4411.843539
4412.298895
4444.144093
4447.651748
4415.116748
4420.780439
4416.276453
4442.483514
4436.810514
4448.903095
4414.182060
4402.413905
4400.547717
4436.874890
4392.772974
4447.387637
4436.161119
4452.323119
4426.923186
4439.824863
4423.219459
4466.485024
4439.575432
4427.056900
4428.270988
4443.388929
4400.733570
4438.194629
4417.183448
4420.113202
4448.919532
4428.301711
4435.417607
4422.241327
4437.061965
4410.135969
4442.116298
4434.145742
4433.839975
4439.881394
4416.219647
4441.193487
4409.770155
4462.674268
4448.236395
4431.851164
4437.722422
4385.121427
4395.413351
4449.582385
4425.897583
4427.930523
4431.849236
4450.612448
4446.929377
4423.755084
4405.991713
4431.179341
4385.122188
4401.864079
4423.678999
4418.804348
4399.413372
4430.571763
4416.078515
4437.864427
4445.995493
4400.206323
4442.451850
4421.572440
4424.548738
4435.345238
4435.473148
4409.178936
4443.259730
4398.286531
4443.396354
4450.256930
4418.374583
4376.726731
4419.128751
4427.046490
4423.967373
4424.948724
4433.283169
4440.927941
4476.768672
4430.875287
4414.077230
4445.774883
4438.286312
4445.304924
4390.058374
4487.869330
4410.082187
4430.840200
4454.356657
4397.823028
4428.801403
4447.945782
4425.059672
4441.857563
4435.661280
4422.882557
4439.500966
4420.140637
4458.164940
4404.158564
4425.092503
4445.109902
4380.556303
4505.690010
4438.107969
4448.434326
4428.713743
4428.721896
4444.346902
4438.871074
4472.750595
4418.851396
4505.627505
4489.880606
4432.773119
4453.955539
4419.849470
4412.069988
4443.648128
4394.195133
4407.434266
4450.205254
4446.331051
4426.390066
4430.003130
4424.663896
4411.220064
4420.533030
4444.280610
4435.338857
4447.041478
4448.657206
4458.630643
4462.414117
4450.289238
4440.385101
4387.558800
4423.334228
4419.892558
4424.146721
4428.238380
4454.471364
4422.171550
4451.145524
4433.170837
4437.435268
4406.581846
4449.619604
4457.054946
4381.111529
4450.524317
4436.475880
4444.067667
4428.547356
4420.177066
4416.193421
4431.879553
4429.146614
4453.788314
4416.712888
4427.433745
4429.290232
4413.642459
4395.581197
4437.213356
4431.923184
4441.085065
4425.504797
4429.526338
4431.679204
4419.738008
4441.242646
4443.977636
4476.456851
4431.477508
4471.045242
4443.502755
4429.296978
4473.142359
4432.050849
4388.676259
4398.606322
4397.810713
4397.006316
4440.057045
4426.485210
4435.888402
4446.621914
4441.026929
4438.220697
4433.899095
4439.853160
4438.376007
4420.545189
4432.755426
4457.361902
4390.157987
4402.351538
4472.797212
4459.908705
4408.375481
4489.115207
4425.034326
4410.745420
4402.963195
4470.503345
4439.568169
4428.484686
4350.070311
4440.555560
4415.981648
4436.519670
4474.796043
4430.408515
4466.878056
4461.053999
4433.677513
4398.722562
4441.406484
4401.928318
4416.384618
4433.394901
4443.023774
4430.601675
4449.007440
4427.062325
4426.900934
4408.430051
4427.279025
4455.316525
4450.585376
4371.186004
4440.157179
4432.879930
4436.932015
4419.731976
4436.645989
4435.454152
4446.144019
4426.640930
4452.947912
4427.008154
4422.906976
4349.246799
4467.832606
4443.989421
4435.527887
4432.390454
4403.940471
4443.763007
4413.894148
4445.266696
4439.357904
4435.149244
4405.135901
4442.965705
4401.310223
4424.032431
4458.015879
4415.079175
4444.184891
4479.319455
4410.827777
4413.376199
4390.226845
4459.444653
4432.696775
4464.286594
4401.208835
4447.789976
4434.124260
4436.848830
4430.687387
4438.969915
4438.764068
4402.378430
4352.495324
4489.332455
4429.930065
4408.132593
4420.740544
4440.318459
4438.069682
4430.023547
4423.371053
4422.662355
4439.828808
4423.868617
4429.132756
4418.982886
4407.249826
4434.537298
4427.892854
4408.608953
4405.882745
4442.379019
4446.113288
4427.285824
4450.893826
4431.963721
4428.677869
4404.156214
4365.202202
4389.982577
4424.362893
4379.143211
4364.484585
4446.132113
4435.538490
4378.884349
4443.308754
4436.125193
4422.368276
4418.589909
4417.091751
4451.066703
4441.498667
4427.095584
4428.651276
4430.450024
4430.738291
4430.932886
4430.798707
4430.269628
4429.851872
4429.417173
4429.535142
4430.153266
4431.326746
4431.817263
4431.445834
4431.055781
4430.535041
4429.399575
4430.163745
4429.132193
4428.783972
4429.462520
4430.588455
4432.094060
4433.104521
4433.431974
4432.081551
4429.554333
4428.112992
4428.791552
4430.204797
4430.614912
4429.561730
4430.124321
4431.322543
4431.964821
4431.605795
4430.223314
4428.820796
4427.448178
4427.309184
4428.531572
4431.783867
4433.381494
4431.913624
4430.171184
4428.825492
4430.127554
4429.979522
4428.785105
4428.234563
4428.617861
4430.264391
4431.600814
4433.490543
4433.396101
4432.344231
4428.801685
4426.733593
4427.124818
4428.798030
4429.088348
4429.942609
4429.822993
4431.304751
4431.960921
4431.521316
4430.040458
4428.506331
4426.713509
4426.620626
4427.857495
4431.106909
4433.226844
4432.161723
4429.572808
4429.648100
4430.001281
4429.645711
4428.981041
4427.399389
4428.885444
4429.370390
4431.840769
4432.524648
4433.889446
4430.978944
4429.552261
4425.530873
4428.203160
4428.535093
4429.748979
4429.764221
4429.620018
4431.283941
4431.679004
4431.478100
4429.631150
4428.332622
4426.284156
4426.320842
4427.648910
4430.517469
4432.987395
4431.752751
4429.067777
4429.209250
4429.801695
4429.687959
4428.614654
4427.564252
4428.210796
4429.643749
4431.044699
4432.827589
4433.001721
4431.347089
4428.746649
4425.645662
4427.026753
4428.220987
4429.057302
4429.211599
4429.792061
4430.781710
4431.673304
4431.252084
4429.428263
4428.128979
4425.939869
4426.285687
4427.101930
4430.524013
4432.656681
4431.956453
4429.747298
4430.843496
4429.638425
4429.539488
4428.475952
4427.339507
4428.084567
4429.322184
4430.951302
4432.440603
4432.753156
4430.994304
4428.618884
4425.421047
4427.594140
4427.780533
4430.071472
4429.149256
4429.613459
4430.753519
4431.511848
4430.878708
4429.509659
4427.478563
4426.154765
4425.904640
4426.990307
4429.955821
4432.528205
4430.900624
4428.291929
4425.305475
4429.398866
4429.586212
4428.116136
4427.215870
4427.820543
4429.013392
4430.828966
4432.212364
4432.413764
4430.989269
4427.992615
4425.631387
4425.844516
4427.782820
4428.957381
4428.976302
4429.425067
4430.613042
4431.320561
4430.622270
4429.335605
4427.336412
4425.879286
4425.990301
4426.682287
4429.843311
4432.574880
4432.045867
4428.958554
4428.789082
4466.960312
4437.222211
4422.862549
4439.055548
4436.791704
4468.391736
4430.345708
4409.164728
4404.462714
4453.385927
4479.827133
4397.829827
4470.152024
4480.125129
4442.954348
4419.476491
4429.126892
4429.360161
4428.168534
4426.639027
4427.928471
4428.587842
4430.718867
4431.985229
4432.073026
4430.521715
4428.803667
4424.887521
4428.291264
4429.735464
4433.077569
4417.111438
4418.702848
4427.826259
4422.721988
4429.902900
4440.149541
4436.941298
4442.948564
4402.628018
4401.053029
4425.472996
4421.137698
4437.687533
4347.384824
4471.513719
4409.520613
4428.570313
4429.271966
4430.395208
4431.035837
4430.623139
4428.786493
4427.682936
4425.120468
4426.554465
4426.243878
4429.346183
4433.086250
4430.896688
4429.340189
4429.761675
4446.691084
4447.303012
4390.580509
4430.363703
4405.595912
4446.212359
4410.838290
4430.971265
4422.203546
4443.162691
4456.122930
4420.293615
4437.855756
4460.662859
4424.515836
4413.295279
4428.920640
4429.348156
4427.887418
4426.641554
4427.477786
4428.954395
4429.946811
4432.392131
4430.763040
4430.938981
4428.346344
4424.145947
4427.572364
4426.854767
4428.664135
4409.535363
4420.449089
4426.588319
4408.337383
4408.271109
4446.668747
4438.068112
4414.128917
4422.954252
4433.589151
4416.717858
4426.929426
4386.894805
4408.536091
4439.607041
4451.915876
4428.465483
4429.392067
4429.985345
4431.117765
4430.327730
4428.933410
4427.300821
4425.229077
4426.228935
4425.859343
4428.826858
4432.973288
4429.365560
4427.411474
4428.096713
4431.218624
4443.882267
4439.951098
4456.527573
4434.347959
4437.869566
4437.628373
4478.095293
4422.328697
4438.642410
4397.622839
4421.745719
4466.391794
4419.968759
4436.026157
4418.684101
4428.484431
4429.284168
4427.705853
4426.686132
4427.229404
4429.020426
4429.905969
4432.029972
4430.591211
4430.520098
4428.063137
4423.986665
4427.077463
4427.032345
4425.228155
4423.177352
4443.268714
4438.592453
4402.295148
4474.983451
4397.981754
4420.659362
4452.619719
4470.778923
4407.501113
4423.350406
4450.938060
4448.582462
4406.217216
4453.326102
4420.446254
4428.491648
4429.508041
4429.695689
4431.155000
4430.055758
4429.137418
4426.756877
4425.871925
4425.815461
4426.101349
4428.299900
4433.100004
4428.574189
4428.691292
4427.800445
4425.692367
4408.362852
4451.343820
4424.153825
4340.432074
4435.934982
4420.986435
4422.531168
4426.109961
4436.861717
4419.771849
4456.351058
4429.157528
4430.466462
4461.290833
4420.129527
4428.263538
4429.257190
4427.461543
4426.729500
4426.888534
4428.927470
4429.738148
4431.958466
4430.356010
4430.653488
4427.946884
4424.468733
4427.382721
4427.409096
4426.473231
4426.323893
4399.014881
4379.853948
4382.339346
4390.772985
4483.818904
4435.988795
4422.971687
4418.409806
4442.270338
4439.827602
4399.261212
4425.383350
4380.642912
4461.273314
4411.469814
4428.295056
4429.205746
4429.789736
4430.641172
4430.324666
4428.480182
4427.135333
4425.616011
4426.675190
4425.584313
4428.811811
4432.973307
4429.847003
4428.956226
4429.261877
4434.727654
4442.963422
4394.525170
4415.825259
4441.880913
4435.201514
4435.509673
4427.137820
4478.070910
4464.196941
4381.820167
4394.670095
4436.873885
4390.621468
4441.300951
4406.657949
4428.238743
4428.838966
4427.759727
4426.264291
4427.199165
4428.371681
4429.923413
4431.523305
4430.553496
4430.266356
4428.271211
4424.576000
4428.082140
4427.125617
4428.684756
4446.697800
4436.637331
4425.950323
4444.657706
4378.283822
4417.848083
4428.960782
4440.901493
4384.252904
4423.864245
4441.290289
4490.391559
4406.171409
4390.887520
4427.237582
4444.175461
4428.153400
4429.107188
4429.605565
4430.528689
4430.263355
4428.301826
4427.059573
4425.948005
4426.860655
4425.422901
4428.412900
4432.884373
4429.838255
4429.026022
4427.927132
4423.392896
4446.053548
4403.294751
4450.314098
4452.678281
4433.388381
4451.634568
4474.557020
4420.380713
4431.834488
4416.217854
4427.304338
4473.489266
4408.175936
4468.023013
4407.223347
4428.089196
4429.029047
4427.388486
4426.757395
4426.561254
4428.901895
4429.234954
4431.641307
4430.173690
4430.219498
4427.496653
4424.607098
4426.063967
4426.363252
4424.917799
4433.114542
4480.315219
4448.094707
4384.775956
4436.430945
4428.078126
4445.787209
4412.368927
4471.498521
4445.285877
4406.242622
4421.515650
4449.666476
4421.185491
4395.380492
4417.507589
4427.999522
4429.392826
4429.069383
4430.841589
4430.132803
4428.330061
4426.937903
4426.538703
4426.456095
4425.559995
4427.594082
4432.323801
4428.256826
4427.448692
4425.218719
4424.746459
4431.120172
4437.330055
4445.629227
4413.812749
4443.533273
4448.077365
4430.494276
4441.322578
4441.060909
4426.576377
4411.839221
4410.337469
4375.963617
4477.607051
4446.860459
4427.904781
4429.167769
4427.266846
4426.958907
4426.347953
4429.201321
4428.960488
4431.617150
4429.848162
4430.026469
4427.133073
4424.761420
4425.621273
4425.614527
4426.553230
4405.814085
4443.933236
4403.861221
4433.680997
4448.786843
4429.121163
4429.408679
4426.666239
4413.494712
4450.922348
4427.667562
4418.560848
4396.149961
4423.402167
4382.852206
4447.626480
4427.869978
4429.470877
4428.890380
4431.069484
4429.812820
4428.382750
4426.741679
4427.091951
4426.352535
4425.929817
4427.312783
4431.934731
4428.537941
4427.113555
4425.429150
4430.456127
4421.206263
4413.609378
4455.097983
4389.154435
4411.826468
4424.095144
4445.810406
4430.442626
4424.350814
4441.239740
4405.846562
4438.112272
4471.170191
4420.924575
4400.755562
4428.114904
4429.057507
4427.512354
4426.672978
4426.773145
4428.559599
4429.167278
4431.817098
4429.689672
4430.074926
4427.421520
4425.320877
4425.561880
4425.848271
4424.717110
4423.385530
4415.573572
4435.543571
4407.160744
4412.260344
4440.688945
4419.857302
4428.146270
4419.009500
4451.396152
4501.294984
4390.474619
4456.600620
4435.253766
4451.499089
4426.631447
4428.066306
4429.209599
4429.239179
4430.777409
4429.761784
4428.290351
4427.080488
4426.871636
4427.488595
4425.787182
4427.145338
4432.323732
4429.274531
4427.579361
4426.283273
4435.029287
4420.657049
4445.223754
4442.275408
4389.092783
4431.705582
4449.995240
4430.531704
4452.740921
4418.213946
4486.929776
4442.882435
4431.833085
4439.084101
4425.010825
4422.579876
4428.459192
4429.143771
4427.551732
4426.829001
4426.702427
4428.450237
4429.178634
4431.777044
4429.981532
4429.658807
4428.215730
4425.081458
4426.648740
4425.496900
4426.393767
4442.026430
4451.284564
4434.593829
4450.508653
4383.615767
4418.365229
4441.830978
4381.094959
4453.094002
4442.356753
4443.721290
4458.679960
4463.588776
4418.837065
4439.783254
4406.175986
4428.239788
4428.947066
4429.429328
4430.318191
4430.478346
4427.516782
4427.835896
4426.787291
4428.082449
4425.374022
4427.412582
4432.841880
4428.334592
4427.096057
4426.777965
4445.916829
4449.976938
4404.000565
4464.548787
4382.017700
4436.046019
4438.796699
4422.006141
4465.732127
4446.463289
4463.330378
4394.125351
4417.180490
4462.752585
4368.358973
4429.454658
4428.350323
4429.507947
4427.430259
4427.285423
4426.218032
4429.558173
4428.657098
4431.715791
4430.665037
4429.966386
4427.556357
4425.936559
4425.534868
4425.084102
4424.820669
4431.191770
4433.161724
4414.545590
4377.135207
4427.979177
4444.158508
4443.872740
4420.594223
4387.871435
4447.205204
4400.118222
4418.688145
4434.017020
4393.640626
4390.235397
4446.805441
4428.258780
4429.512969
4428.427878
4431.512595
4430.010733
4428.537606
4427.556064
4428.753263
4426.914605
4425.766517
4428.299377
4431.524659
4428.109497
4427.834022
4426.346040
4419.638220
4398.954645
4416.067085
4428.709475
4456.876365
4420.769694
4434.154525
4494.105374
4404.940130
4407.387516
4429.653511
4412.084695
4480.538663
4431.805847
4563.968878
4414.237638
4428.395275
4429.341379
4428.070942
4426.977970
4426.993847
4429.096005
4428.601123
4432.021788
4430.545995
4429.570036
4427.446623
4427.248765
4426.328099
4426.235300
4423.207698
4445.713589
4426.015921
4446.734081
4431.196943
4462.618879
4462.518851
4441.230087
4451.649054
4478.916987
4430.868775
4449.224267
4441.961343
4441.819975
4429.259317
4280.887357
4427.486295
4428.696474
4429.650896
4428.544447
4431.409156
4429.671929
4428.380044
4427.063466
4429.039130
4426.443134
4426.939095
4428.275033
4430.856404
4427.345130
4427.801712
4425.014810
4422.044773
4380.159906
4380.920111
4407.330840
4444.380200
4412.977734
4436.666052
4442.510843
4432.515709
4436.866757
4395.998730
4442.304097
4442.918463
4420.712580
4384.936668
4405.421762