# vtk DataFile Version 2.0
mfree iwf
ASCII

DATASET UNSTRUCTURED_GRID
POINTS 11406 float
0.000000 0.000445 0.000000
0.000000 0.000450 0.000000
0.000000 0.000455 0.000000
0.000000 0.000460 0.000000
0.000000 0.000465 0.000000
0.000000 0.000470 0.000000
0.000000 0.000475 0.000000
0.000000 0.000480 0.000000
0.000000 0.000485 0.000000
0.000000 0.000490 0.000000
-0.000000 0.000496 0.000000
0.000002 0.000500 0.000000
0.001019 0.000976 0.000000
0.001028 0.000975 0.000000
0.001074 0.000963 0.000000
0.001078 0.000960 0.000000
0.001078 0.000960 0.000000
0.001085 0.000958 0.000000
0.001092 0.000955 0.000000
0.001087 0.000957 0.000000
0.001101 0.000952 0.000000
0.001126 0.000941 0.000000
0.001131 0.000936 0.000000
0.001134 0.000933 0.000000
0.001138 0.000930 0.000000
0.001141 0.000927 0.000000
0.001145 0.000923 0.000000
0.001148 0.000919 0.000000
0.001151 0.000916 0.000000
0.001156 0.000912 0.000000
0.001160 0.000908 0.000000
0.001180 0.000896 0.000000
0.000005 0.000445 0.000000
0.000005 0.000450 0.000000
0.000005 0.000455 0.000000
0.000005 0.000460 0.000000
0.000005 0.000465 0.000000
0.000005 0.000470 0.000000
0.000005 0.000475 0.000000
0.000005 0.000480 0.000000
0.000005 0.000485 0.000000
0.000006 0.000490 0.000000
0.000003 0.000496 0.000000
0.000006 0.000499 0.000000
0.001068 0.000963 0.000000
0.001073 0.000954 0.000000
0.001107 0.000947 0.000000
0.001113 0.000945 0.000000
0.001118 0.000942 0.000000
0.001121 0.000940 0.000000
0.001123 0.000938 0.000000
0.001126 0.000935 0.000000
0.001129 0.000932 0.000000
0.001134 0.000927 0.000000
0.001140 0.000922 0.000000
0.001143 0.000918 0.000000
0.001147 0.000913 0.000000
0.001155 0.000907 0.000000
0.001157 0.000904 0.000000
0.001162 0.000901 0.000000
0.001172 0.000897 0.000000
0.001174 0.000896 0.000000
0.001169 0.000899 0.000000
0.001178 0.000894 0.000000
0.000010 0.000445 0.000000
0.000011 0.000450 0.000000
0.000010 0.000456 0.000000
0.000010 0.000460 0.000000
0.000010 0.000464 0.000000
0.000010 0.000469 0.000000
0.000009 0.000475 0.000000
0.000011 0.000480 0.000000
0.000009 0.000486 0.000000
0.000012 0.000489 0.000000
0.000009 0.000497 0.000000
0.000011 0.000498 0.000000
0.001068 0.000959 0.000000
0.001076 0.000952 0.000000
0.001092 0.000950 0.000000
0.001100 0.000948 0.000000
0.001104 0.000946 0.000000
0.001109 0.000945 0.000000
0.001100 0.000942 0.000000
0.001108 0.000938 0.000000
0.001114 0.000937 0.000000
0.001119 0.000933 0.000000
0.001128 0.000928 0.000000
0.001133 0.000924 0.000000
0.001133 0.000918 0.000000
0.001138 0.000915 0.000000
0.001142 0.000914 0.000000
0.001151 0.000908 0.000000
0.001164 0.000899 0.000000
0.001166 0.000897 0.000000
0.001171 0.000891 0.000000
0.001173 0.000886 0.000000
0.000014 0.000445 0.000000
0.000016 0.000450 0.000000
0.000014 0.000455 0.000000
0.000018 0.000460 0.000000
0.000016 0.000470 0.000000
0.000015 0.000464 0.000000
0.000013 0.000476 0.000000
0.000017 0.000480 0.000000
0.000014 0.000485 0.000000
0.000016 0.000489 0.000000
0.000014 0.000495 0.000000
0.000016 0.000498 0.000000
0.000025 0.000500 0.000000
0.001080 0.000953 0.000000
0.001095 0.000948 0.000000
0.001090 0.000945 0.000000
0.001104 0.000940 0.000000
0.001113 0.000942 0.000000
0.001115 0.000932 0.000000
0.001122 0.000929 0.000000
0.001117 0.000926 0.000000
0.001125 0.000925 0.000000
0.001133 0.000912 0.000000
0.001136 0.000921 0.000000
0.001142 0.000908 0.000000
0.001147 0.000908 0.000000
0.001147 0.000903 0.000000
0.001152 0.000902 0.000000
0.001156 0.000897 0.000000
0.001161 0.000895 0.000000
0.001164 0.000891 0.000000
0.001171 0.000884 0.000000
0.000019 0.000445 0.000000
0.000021 0.000450 0.000000
0.000018 0.000455 0.000000
0.000022 0.000458 0.000000
0.000017 0.000467 0.000000
0.000026 0.000467 0.000000
0.000018 0.000475 0.000000
0.000022 0.000479 0.000000
0.000019 0.000486 0.000000
0.000021 0.000491 0.000000
0.000021 0.000497 0.000000
0.000022 0.000499 0.000000
0.000039 0.000500 0.000000
0.001076 0.000941 0.000000
0.001083 0.000947 0.000000
0.001090 0.000939 0.000000
0.001096 0.000945 0.000000
0.001107 0.000934 0.000000
0.001106 0.000930 0.000000
0.001120 0.000924 0.000000
0.001110 0.000928 0.000000
0.001122 0.000919 0.000000
0.001123 0.000910 0.000000
0.001128 0.000906 0.000000
0.001134 0.000906 0.000000
0.001142 0.000902 0.000000
0.001148 0.000893 0.000000
0.001153 0.000893 0.000000
0.001157 0.000891 0.000000
0.001165 0.000885 0.000000
0.001168 0.000888 0.000000
0.001168 0.000880 0.000000
0.000024 0.000445 0.000000
0.000026 0.000450 0.000000
0.000025 0.000456 0.000000
0.000025 0.000461 0.000000
0.000021 0.000466 0.000000
0.000025 0.000473 0.000000
0.000023 0.000476 0.000000
0.000027 0.000481 0.000000
0.000023 0.000485 0.000000
0.000026 0.000488 0.000000
0.000026 0.000493 0.000000
0.000027 0.000500 0.000000
0.001049 0.000971 0.000000
0.001083 0.000950 0.000000
0.001087 0.000949 0.000000
0.001102 0.000936 0.000000
0.001094 0.000934 0.000000
0.001114 0.000931 0.000000
0.001113 0.000923 0.000000
0.001102 0.000929 0.000000
0.001110 0.000919 0.000000
0.001127 0.000921 0.000000
0.001126 0.000914 0.000000
0.001128 0.000916 0.000000
0.001138 0.000911 0.000000
0.001139 0.000904 0.000000
0.001151 0.000897 0.000000
0.001146 0.000898 0.000000
0.001160 0.000887 0.000000
0.001152 0.000888 0.000000
0.001161 0.000882 0.000000
0.001164 0.000876 0.000000
0.000030 0.000445 0.000000
0.000030 0.000450 0.000000
0.000029 0.000455 0.000000
0.000030 0.000460 0.000000
0.000032 0.000464 0.000000
0.000027 0.000468 0.000000
0.000031 0.000471 0.000000
0.000031 0.000477 0.000000
0.000030 0.000486 0.000000
0.000031 0.000492 0.000000
0.000033 0.000497 0.000000
0.000030 0.000499 0.000000
0.000049 0.000500 0.000000
0.001072 0.000948 0.000000
0.001085 0.000938 0.000000
0.001095 0.000938 0.000000
0.001092 0.000935 0.000000
0.001099 0.000932 0.000000
0.001104 0.000921 0.000000
0.001117 0.000912 0.000000
0.001116 0.000919 0.000000
0.001120 0.000914 0.000000
0.001130 0.000909 0.000000
0.001133 0.000897 0.000000
0.001135 0.000901 0.000000
0.001139 0.000897 0.000000
0.001143 0.000889 0.000000
0.001143 0.000894 0.000000
0.001150 0.000884 0.000000
0.001155 0.000884 0.000000
0.001159 0.000879 0.000000
0.001161 0.000873 0.000000
0.000035 0.000445 0.000000
0.000035 0.000450 0.000000
0.000034 0.000456 0.000000
0.000038 0.000454 0.000000
0.000035 0.000468 0.000000
0.000037 0.000472 0.000000
0.000031 0.000478 0.000000
0.000041 0.000478 0.000000
0.000035 0.000483 0.000000
0.000034 0.000488 0.000000
0.000037 0.000491 0.000000
0.000036 0.000498 0.000000
0.001006 0.000976 0.000000
0.001044 0.000972 0.000000
0.001081 0.000941 0.000000
0.001086 0.000932 0.000000
0.001099 0.000925 0.000000
0.001091 0.000923 0.000000
0.001107 0.000924 0.000000
0.001106 0.000916 0.000000
0.001114 0.000916 0.000000
0.001106 0.000908 0.000000
0.001114 0.000901 0.000000
0.001127 0.000897 0.000000
0.001129 0.000901 0.000000
0.001134 0.000893 0.000000
0.001147 0.000887 0.000000
0.001139 0.000876 0.000000
0.001151 0.000879 0.000000
0.001153 0.000878 0.000000
0.001157 0.000875 0.000000
0.001158 0.000869 0.000000
0.000040 0.000445 0.000000
0.000041 0.000450 0.000000
0.000036 0.000461 0.000000
0.000040 0.000459 0.000000
0.000042 0.000463 0.000000
0.000039 0.000467 0.000000
0.000042 0.000472 0.000000
0.000037 0.000478 0.000000
0.000041 0.000487 0.000000
0.000042 0.000491 0.000000
0.000041 0.000497 0.000000
0.000044 0.000498 0.000000
0.000860 0.000920 0.000000
0.001069 0.000955 0.000000
0.001072 0.000944 0.000000
0.001082 0.000928 0.000000
0.001096 0.000927 0.000000
0.001100 0.000919 0.000000
0.001095 0.000923 0.000000
0.001111 0.000912 0.000000
0.001118 0.000905 0.000000
0.001121 0.000906 0.000000
0.001114 0.000907 0.000000
0.001120 0.000893 0.000000
0.001128 0.000891 0.000000
0.001134 0.000887 0.000000
0.001138 0.000892 0.000000
0.001139 0.000886 0.000000
0.001144 0.000883 0.000000
0.001147 0.000875 0.000000
0.001153 0.000872 0.000000
0.001154 0.000866 0.000000
0.000044 0.000445 0.000000
0.000046 0.000450 0.000000
0.000044 0.000454 0.000000
0.000046 0.000460 0.000000
0.000044 0.000468 0.000000
0.000046 0.000474 0.000000
0.000046 0.000479 0.000000
0.000040 0.000483 0.000000
0.000052 0.000485 0.000000
0.000045 0.000484 0.000000
0.000048 0.000493 0.000000
0.000050 0.000498 0.000000
0.000866 0.000925 0.000000
0.001064 0.000964 0.000000
0.001086 0.000942 0.000000
0.001090 0.000928 0.000000
0.001087 0.000926 0.000000
0.001100 0.000915 0.000000
0.001101 0.000911 0.000000
0.001107 0.000911 0.000000
0.001108 0.000900 0.000000
0.001119 0.000899 0.000000
0.001124 0.000902 0.000000
0.001130 0.000887 0.000000
0.001123 0.000889 0.000000
0.001130 0.000883 0.000000
0.001139 0.000882 0.000000
0.001143 0.000878 0.000000
0.001142 0.000873 0.000000
0.001146 0.000871 0.000000
0.001150 0.000868 0.000000
0.001151 0.000862 0.000000
0.000049 0.000445 0.000000
0.000052 0.000450 0.000000
0.000049 0.000455 0.000000
0.000054 0.000455 0.000000
0.000047 0.000464 0.000000
0.000049 0.000470 0.000000
0.000053 0.000468 0.000000
0.000051 0.000477 0.000000
0.000047 0.000488 0.000000
0.000052 0.000491 0.000000
0.000057 0.000492 0.000000
0.000053 0.000498 0.000000
0.000950 0.000967 0.000000
0.001056 0.000961 0.000000
0.001067 0.000951 0.000000
0.001081 0.000931 0.000000
0.001087 0.000920 0.000000
0.001094 0.000917 0.000000
0.001089 0.000913 0.000000
0.001096 0.000912 0.000000
0.001103 0.000902 0.000000
0.001109 0.000905 0.000000
0.001107 0.000898 0.000000
0.001116 0.000894 0.000000
0.001121 0.000883 0.000000
0.001124 0.000895 0.000000
0.001130 0.000879 0.000000
0.001133 0.000873 0.000000
0.001134 0.000879 0.000000
0.001143 0.000868 0.000000
0.001146 0.000864 0.000000
0.001148 0.000859 0.000000
0.000054 0.000445 0.000000
0.000057 0.000450 0.000000
0.000053 0.000458 0.000000
0.000052 0.000463 0.000000
0.000059 0.000467 0.000000
0.000054 0.000473 0.000000
0.000057 0.000476 0.000000
0.000057 0.000481 0.000000
0.000052 0.000483 0.000000
0.000056 0.000487 0.000000
0.000056 0.000497 0.000000
0.000059 0.000496 0.000000
0.000972 0.000971 0.000000
0.001063 0.000965 0.000000
0.001060 0.000959 0.000000
[...]
POINT_DATA 11406
SCALARS density float 1
LOOKUP_TABLE default
4429.447437
4437.807565
4428.614456
4416.279341
4424.107758
4424.944425
4428.580248
4436.176647
4429.779995
4421.504697
4434.184981
4400.296237
4432.554907
4421.784652
4419.191379
4441.398054
4442.725177
4441.754341
4447.285124
4453.193625
4425.091617
4427.356546
4395.001219
4437.615004
4427.653163
4423.299886
4454.572593
4423.298419
4413.324384
4449.017355
4420.800348
4401.432051
4431.098848
4419.001909
4411.230585
4443.349287
4455.730681
4428.908269
4426.914934
4423.429421
4412.714295
4427.411879
4457.018976
4406.980899
4413.716348
4405.299909
4415.831306
4410.263768
4424.814466
4427.706007
4445.527116
4462.657787
4454.650342
4403.501233
4402.812265
4399.151673
4440.793680
4400.542766
4431.651345
4459.776001
4420.313759
4432.581299
4404.010949
4402.885888
4419.503158
4429.843859
4467.031382
4413.126741
4392.003848
4403.743991
4450.822404
4376.824336
4477.930363
4370.763041
4451.369875
4399.406177
4459.697638
4474.146895
4430.980970
4397.678243
4421.659283
4412.902693
4453.780725
4442.847707
4411.322121
4387.208920
4413.909326
4458.600156
4387.467679
4433.575344
4442.460512
4398.870180
4421.427599
4429.358288
4452.863365
4411.426808
4420.791265
4436.277545
4428.177591
4419.090280
4418.556771
4471.500619
4479.575645
4380.090070
4486.929019
4376.468670
4519.914201
4397.720316
4435.851202
4371.707387
4422.329597
4446.882071
4476.945471
4454.007637
4454.537374
4380.454228
4430.545521
4442.809299
4442.623503
4454.301506
4397.151904
4466.034464
4429.569428
4472.168272
4439.382607
4364.546948
4497.754480
4443.303614
4445.166217
4436.131112
4424.233307
4452.647111
4451.311530
4456.414250
4408.129824
4464.527519
4470.617448
4377.492001
4465.833287
4434.160700
4414.625685
4421.426462
4482.610802
4419.758496
4476.224079
4391.170421
4464.418342
4447.358929
4399.918900
4390.815980
4402.394760
4417.564228
4413.371907
4433.252978
4421.825243
4462.598252
4458.258817
4377.917237
4399.109499
4420.379931
4433.397439
4444.479331
4424.791111
4402.797995
4394.770860
4411.794588
4472.821346
4354.562123
4429.495238
4478.030771
4410.221366
4425.177341
4436.403708
4408.541437
4389.943368
4394.050882
4449.604238
4458.660254
4411.286757
4427.642675
4460.887212
4437.584045
4457.404235
4445.524361
4449.380809
4454.281595
4387.176110
4426.801489
4414.100648
4419.028310
4496.691257
4412.683351
4421.389337
4434.717126
4415.693800
4447.045253
4403.171147
4470.669573
4379.268351
4460.652544
4448.698507
4408.122404
4461.563761
4420.377085
4422.268214
4438.854038
4460.282061
4392.033236
4441.649298
4467.412337
4419.491493
4415.752304
4435.168255
4458.268804
4429.079990
4441.101561
4437.639935
4395.438530
4410.754811
4455.782985
4433.102660
4389.845777
4400.127143
4442.531730
4432.807334
4415.497710
4456.685405
4419.351386
4450.838930
4434.082192
4453.526837
4432.828108
4394.857812
4435.302040
4412.847422
4444.137316
4412.732386
4424.541827
4398.344049
4409.292933
4422.140830
4446.956565
4450.408503
4400.466227
4438.649760
4456.634591
4395.235634
4443.266799
4419.205097
4450.111272
4439.198010
4435.540410
4444.974718
4462.934967
4412.634576
4417.956748
4432.732176
4429.246256
4409.290266
4438.879682
4428.643856
4439.291661
4419.185682
4425.515827
4455.420673
4420.928077
4434.688695
4430.779087
4427.493855
4466.215546
4404.599939
4435.430380
4414.634987
4442.664064
4452.201453
4428.936997
4452.455133
4442.228690
4420.941344
4443.629120
4417.129254
4425.041544
4429.430144
4424.558930
4423.135983
4396.240684
4417.223381
4435.552179
4429.974254
4421.780106
4430.606187
4426.607453
4402.765759
4449.489177
4434.330590
4432.543767
4463.055535
4414.858571
4467.550939
4424.974916
4433.938242
4438.035744
4395.867898
4415.290538
4435.138299
4456.913581
4417.140782
4449.361240
4455.162415
4419.234353
4433.800557
4435.733438
4427.666262
4442.469817
4438.264733
4441.447192
4428.610413
4455.023117
4426.653620
4423.248544
4428.802487
4424.074778
4434.372457
4428.732978
4445.327975
4447.604778
4431.147689
4384.002401
4393.636282
4432.850234
4530.539673
4403.104226
4436.957858
4431.962583
4397.447500
4445.485040
4429.265037
4382.802982
4465.974357
4433.247298
4391.936335
4428.004241
4441.290176
4431.765750
4435.964693
4431.251790
4446.611039
4438.298184
4401.452195
4418.770733
4426.184829
4431.330929
4444.512358
4424.396301
4450.856919
4384.151946
4444.846128
4450.056297
4435.049129
4449.662418
4466.107083
4349.846004
4407.518019
4413.031937
4426.657330
4433.173216
4423.770872
4415.888620
4443.663782
4436.339270
4394.829432
4439.279296
4445.621457
4377.816473
4438.491399
4401.787349
4409.878830
4436.154029
4454.676093
4419.813897
4449.258045
4425.529187
4430.800346
4428.511184
4422.491965
4413.666337
4407.503315
4403.008421
4432.936657
4429.302455
4411.273902
4417.953132
4464.417239
4394.698419
4447.777387
4438.533936
4414.071226
4425.888179
4428.255411
4382.283179
4391.125554
4415.461202
4440.408099
4418.406387
4457.408632
4439.863577
4442.740836
4411.251169
4401.459802
4420.941731
4432.669467
4432.598110
4409.245365
4436.828024
4429.588453
4429.698750
4440.580488
4434.763884
4453.506829
4404.157262
4449.535510
4444.693482
4427.549302
4391.129097
4439.993097
4408.708258
4417.607969
4441.925913
4415.207832
4436.619818
4413.725253
4390.997538
4448.948309
4372.531370
4442.850095
4414.367167
4448.537808
4438.841101
4462.124278
4438.918176
4431.256881
4447.990215
4428.582082
4442.561669
4421.045794
4440.797547
4424.645782
4429.477328
4402.555507
4440.821060
4432.006457
4455.102917
4434.833209
4451.770368
4428.217741
4441.317474
4404.306719
4417.983028
4442.455850
4450.209103
4424.658440
4438.993027
4434.924684
4457.925624
4446.871325
4465.458165
4460.088533
4443.659696
4385.891677
4412.721202
4426.484746
4446.480514
4444.844949
4423.740797
4443.693456
4405.504487
4432.777737
4393.596833
4438.760619
4432.391736
4443.065930
4415.812346
4399.360848
4438.385685
4420.605888
4403.241959
4438.354982
4434.630036
4446.063279
4398.313589
4391.137121
4449.998423
4431.770457
4419.094939
4429.375056
4445.265462
4435.620200
4411.323139
4409.238096
4413.792564
4394.089074
4415.189134
4414.176837
4436.908079
4396.675731
4438.960535
4422.899409
4429.739766
4439.461510
4428.888408
4430.616561
4424.692614
4422.712443
4433.183074
4418.097415
4449.945682
4366.298784
4433.790621
4422.954730
4430.560762
4408.782932
4380.199648
4395.400782
4433.439863
4429.893077
4424.430647
4424.972431
4435.952589
4486.075585
4443.990955
4421.821140
4443.796793
4416.612066
4458.032499
4443.427198
4425.129111
4424.663396
4406.578362
4416.726510
4441.648625
4409.317113
4442.539064
4423.163620
4443.071972
4443.436419
4428.362232
4426.899609
4410.091350
4440.621066
4447.098815
4426.303795
4437.608492
4405.000734
4505.889367
4438.099646
4474.494382
4433.585923
4429.405124
4440.558669
4436.047278
4460.631504
4424.155948
4489.447896
4502.587226
4432.712330
4426.392612
4418.592626
4445.364849
4425.945952
4436.819067
4410.634607
4439.060041
4439.325984
4437.600426
4422.999223
4429.733868
4418.732886
4426.735387
4431.499636
4435.603548
4432.807062
4442.169603
4449.215870
4443.895573
4455.043956
4444.161793
4381.800392
4418.379160
4413.557122
4413.439177
4433.063464
4437.722104
4425.303422
4439.689849
4434.632300
4437.081099
4434.072487
4447.722081
4435.462603
4419.623043
4422.067772
4439.770256
4443.251316
4438.983483
4420.518960
4416.007166
4423.554356
4434.211132
4463.513386
4418.627165
4434.335080
4446.313435
4418.718424
4420.926272
4440.317103
4455.201538
4423.851031
4409.720534
4429.902362
4434.440059
4425.737739
4443.869327
4441.382280
4470.962884
4434.691491
4444.422225
4436.561163
4447.510275
4491.602772
4438.195638
4447.114733
4433.239981
4400.649304
4423.548546
4414.267302
4429.653613
4433.070792
4446.880798
4431.271149
4431.076753
4429.993592
4428.880856
4448.384679
4409.903879
4411.009712
4458.666410
4401.883743
4396.518928
4465.228413
4469.390333
4392.363699
4501.903796
4423.145948
4436.909067
4416.040168
4475.250244
4438.026827
4420.660340
4356.919801
4440.172032
4388.815067
4441.018612
4477.347949
4429.337951
4463.160954
4446.252171
4413.605469
4426.646845
4444.840237
4410.105757
4415.791912
4424.737409
4431.744764
4422.912260
4426.475644
4436.656512
4450.751776
4436.875131
4439.658382
4422.913139
4459.454459
4357.261131
4433.411530
4436.493098
4434.227851
4424.217063
4429.573678
4453.845800
4455.389036
4403.732072
4445.605031
4417.265238
4389.699937
4348.674297
4461.339515
4392.735740
4427.333922
4421.206469
4445.771783
4415.453780
4451.997855
4423.847234
4457.644036
4427.683207
4413.133479
4432.609247
4397.540320
4423.802836
4417.477954
4411.766004
4436.539558
4415.845441
4461.327578
4399.600161
4401.574557
4458.652416
4435.442584
4474.629402
4384.269121
4442.439073
4439.585686
4439.726676
4433.412296
4461.598237
4448.167569
4376.914336
4358.013879
4458.346372
4394.038347
4380.059567
4426.368986
4431.184769
4457.068321
4416.190459
4414.486110
4415.870399
4434.640750
4425.845240
4447.400191
4420.131068
4435.528014
4421.398843
4419.288086
4429.249675
4453.664031
4455.499410
4430.398128
4428.807216
4464.833921
4408.053258
4438.678932
4390.123394
4373.562387
4430.331006
4401.320201
4412.798523
4383.289011
4446.214568
4441.741653
4457.706962
4440.783433
4468.516929
4411.475199
4439.002353
4452.184811
4409.668302
4458.453992
4425.509114
4426.617636
4430.123575
4430.210102
4430.305469
4430.153883
4429.660578
4429.395712
4429.031558
4429.309467
4429.997446
4431.019319
4431.473652
4431.373026
4430.454749
4429.943388
4427.614636
4429.375460
4428.442144
4428.645714
4429.542025
4430.661080
4432.062623
4433.082967
4433.295521
4431.788985
4429.902970
4428.629632
4428.636313
4430.314944
4431.843690
4428.435638
4429.694837
4430.722442
4430.952810
4430.490626
4429.220389
4428.105113
4426.717715
4426.907701
4428.398199
4431.104670
4432.401652
4431.886470
4430.855451
4427.879352
4428.825613
4429.213230
4428.183514
4428.103683
4428.953547
4430.378563
4431.800911
4433.628878
4433.380721
4432.079507
4428.983276
4427.388561
4426.987592
4428.513639
4429.850129
4429.204781
4429.647022
4430.845634
4431.087996
4430.390943
4429.206955
4427.710960
4426.072807
4426.173802
4427.620673
4430.529154
4432.000958
4432.238962
4429.072680
4429.921011
4429.119665
4429.238493
4428.217331
4427.730087
4429.080719
4429.772109
4432.010203
4432.932142
4433.748921
4431.069168
4429.314434
4426.168117
4427.241913
4427.983421
4428.140106
4429.434956
4429.518231
4431.065856
4430.935369
4430.367093
4429.046662
4427.515026
4425.789368
4425.860051
4427.331861
4430.052068
4431.937194
4430.752638
4428.047873
4427.610602
4429.121655
4429.142533
4428.287418
4427.637544
4428.859737
4429.783913
4431.580719
4433.037157
4433.265351
4431.255768
4428.729945
4426.214030
4427.191930
4426.764715
4429.416676
4428.931493
4429.730050
4430.731305
4430.839748
4430.522667
4428.575796
4427.782331
4425.249930
4426.035496
4426.819471
4430.394667
4431.776819
4432.316733
4429.744022
4430.879463
4429.044926
4429.231247
4428.034999
4427.765707
4428.465811
4429.942712
4431.039495
4433.099611
4432.989795
4431.109083
4428.822046
4426.229210
4428.007783
4429.353780
4429.368254
4429.090632
4429.824147
4430.513799
4431.179452
4429.842909
4429.019351
4426.907729
4425.802767
4425.326024
4427.241408
4429.534436
4432.563545
4430.479631
4429.993258
4427.710560
4428.942770
4429.232738
4427.874760
4427.532336
4428.367120
4429.603678
4430.941450
4432.887983
4432.930575
4431.129281
4428.359020
4426.234934
4427.044523
4428.029906
4428.697425
4428.926691
4429.487786
4430.692230
4430.840086
4429.943558
4428.594065
4427.181564
4425.359555
4425.721412
4426.517303
4429.990401
4432.034312
4431.995074
4429.210669
4430.916684
4450.836899
4440.968539
4436.903838
4433.931513
4421.116416
4456.164044
4433.256876
4408.787661
4419.353667
4460.090706
4456.476521
4394.940773
4422.401449
4452.509269
4423.051370
4426.344397
4428.751715
4429.025249
4427.979371
4426.901009
4428.609074
4429.037844
4431.017302
4432.531537
4432.786195
4430.842698
4428.394466
4425.712087
4428.117595
4429.338526
4430.905268
4439.444011
4409.945708
4401.376834
4400.688107
4413.778666
4445.612016
4432.835233
4387.411498
4382.047568
4408.481361
4419.792824
4435.875635
4428.371352
4389.852752
4419.207332
4410.609368
4428.583597
4429.463277
4430.463129
4430.852313
4429.707908
4428.448590
4427.163037
4425.118030
4425.867852
4425.973824
4429.529908
4432.032060
4430.932209
4429.800189
4430.306176
4442.220317
4410.541940
4419.143601
4434.000114
4416.706146
4448.285146
4416.097258
4425.948648
4395.453410
4444.179543
4431.770927
4430.117166
4437.205991
4438.790961
4440.879180
4425.979169
4428.583549
4429.211148
4427.455688
4427.205289
4427.768331
4429.575984
4430.009898
4433.004687
4431.599499
4431.221202
4427.596114
4424.972130
4427.013631
4426.757813
4429.291845
4441.581137
4437.790121
4407.688799
4407.574019
4405.619086
4447.363703
4429.296952
4425.667261
4434.710442
4465.181748
4438.802654
4430.242737
4368.372976
4389.502232
4448.889194
4452.988462
4428.319311
4429.641531
4430.083976
4430.876333
4429.642163
4428.297076
4427.008393
4425.121212
4425.544751
4425.624520
4428.597344
4431.775595
4429.574360
4427.286293
4427.916615
4461.139321
4409.029742
4453.365390
4460.167762
4443.289546
4428.772487
4439.870957
4459.974998
4427.219637
4438.976362
4382.237759
4442.778954
4406.488104
4427.927603
4432.236755
4421.096147
4428.223673
4429.083269
4427.349059
4427.119334
4427.505862
4429.600152
4429.722369
4432.716398
4431.482594
4430.673365
4427.442198
4424.350820
4425.955788
4427.063738
4424.980095
4435.458511
4401.878342
4424.818958
4394.124628
4478.981302
4390.638531
4429.905697
4435.268699
4442.946158
4405.637707
4398.100701
4409.978448
4427.710051
4417.919183
4447.479657
4418.078641
4428.489558
4429.593557
4430.027709
4431.000027
4429.381722
4428.527786
4426.466198
4425.593423
4425.167238
4425.667583
4427.860127
4431.727953
4428.040992
4427.672428
4425.996545
4432.520081
4451.241502
4461.254250
4418.711581
4377.407059
4446.356317
4433.599600
4431.391987
4413.882109
4441.034631
4435.145768
4464.404068
4446.926358
4415.738083
4482.074056
4410.130559
4428.088216
4428.964616
4427.326982
4426.733831
4427.521069
4429.090366
4429.745934
4432.432764
4431.524207
4430.611092
4427.305829
4424.429416
4426.306690
4425.539687
4424.497484
4401.546159
4447.572596
4439.240999
4422.162281
4401.551011
4469.824521
4420.501490
4425.667650
4425.807204
4420.680590
4443.231972
4393.208927
4464.020325
4383.366312
4428.996153
4423.195057
4428.309366
4429.234645
4430.261988
4430.672918
4429.562753
4428.022451
4426.892366
4425.240213
4426.097133
4424.904459
4428.577140
4431.459550
4429.711346
4427.649832
4426.526696
4408.856215
4418.689786
4429.030385
4407.234596
4437.144940
4439.623769
4424.342516
4423.882325
4387.824353
4425.910803
4412.772379
4414.282630
4466.710048
4445.807756
4420.486170
4391.470787
4428.136344
4428.658129
4427.591970
4426.136140
4427.728203
4428.479627
4429.943529
4432.084992
4431.671015
4430.474979
4427.491504
4424.343528
4426.616901
4426.429640
4428.361527
4443.095309
4426.207025
4438.173558
4471.497180
4361.672190
4415.156498
4424.246184
4445.002784
4432.630938
4443.675611
4460.232577
4438.494999
4398.455145
4435.835644
4387.083797
4446.275234
4428.152544
4429.165125
4430.148097
4430.658811
4429.547292
4427.889857
4426.959872
4425.510732
4426.189850
4424.767064
4428.027053
4431.806056
4429.756468
4428.366719
4427.791054
4419.798512
4436.802842
4454.598160
4446.025103
4466.973204
4434.663243
4459.905251
4459.524604
4375.183263
4438.589641
4388.566950
4438.852429
4468.289254
4383.672689
4459.085028
4399.974156
4428.076202
4428.865884
4427.188461
4426.575954
4426.829771
4429.064165
4429.185790
4432.256905
4431.311354
4430.626883
4427.029622
4424.269577
4425.285454
4426.820086
4425.261882
4438.145396
4454.081861
4434.852008
4390.055389
4437.433588
4429.307289
4430.642749
4447.652258
4457.558105
4427.113896
4472.060954
4412.297719
4428.840262
4419.494515
4429.413074
4434.443651
4427.933506
4429.551504
4429.575295
4430.955724
4429.621038
4428.082721
4426.687743
4426.368340
4425.648399
4425.015924
4427.190559
4431.668798
4428.357346
4427.463188
4425.691278
4421.156085
4410.105464
4410.710514
4433.733140
4425.201323
4444.305419
4444.528714
4433.402214
4420.449938
4425.646393
4410.664724
4455.600157
4415.984738
4423.140211
4493.929787
4442.669237
4427.793050
4429.234884
4426.712638
4427.116634
4426.131849
4429.729134
4428.520805
4432.602956
4430.929954
4430.730166
4426.674897
4424.487889
4424.909791
4425.429891
4426.064642
4421.212794
4417.192634
4390.304411
4450.485973
4452.240867
4418.966764
4426.420223
4428.644776
4415.541800
4442.905981
4420.466017
4451.177535
4412.104086
4424.080502
4402.312017
4451.966912
4427.765157
4429.876190
4429.165028
4431.627946
4429.053275
4428.653116
4425.857744
4427.157948
4425.251570
4425.434947
4426.782050
4431.553048
4428.476313
4428.155232
4424.079063
4418.977191
4433.727578
4413.861935
4429.522093
4423.418562
4433.499663
4420.819460
4438.139742
4432.530749
4425.500649
4400.042115
4429.974728
4443.342289
4444.248673
4408.209292
4398.523924
4427.966019
4428.999070
4427.088876
4426.473058
4426.684611
4428.678794
4428.908808
4432.802544
4430.740490
4431.226226
4426.761243
4425.261443
4423.897547
4426.317665
4424.499817
4435.994959
4444.947929
4431.270081
4404.414192
4416.415390
4452.869184
4419.511450
4426.579888
4415.978035
4460.155684
4437.225463
4410.413136
4430.538140
4394.188359
4429.047344
4429.583854
4428.082608
4429.309623
4429.902029
4431.232091
4429.142331
4428.589158
4426.544953
4426.625941
4426.957085
4424.930213
4426.854234
4431.620087
4430.355251
4427.380765
4426.333079
4405.863296
4410.419592
4430.233884
4432.429823
4388.783638
4425.016688
4445.243495
4426.093001
4453.939545
4428.083269
4449.472432
4402.551230
4431.204436
4417.525331
4405.781945
4413.719551
4428.310668
4428.908278
4427.271773
4426.147040
4426.732141
4427.854629
4429.690906
4432.124213
4431.240072
4430.606509
4427.924434
4423.686810
4425.252736
4425.327910
4426.184720
4446.275283
4450.060171
4440.857233
4451.078342
4389.706993
4418.067783
4441.330590
4374.709726
4466.687914
4462.804833
4443.944444
4366.872600
4432.863985
4445.989248
4416.739347
4430.538691
4428.163722
4428.698237
4430.356544
4430.251268
4430.246204
4427.450708
4427.716086
4425.932465
4427.763846
4424.027495
4426.697134
4432.365946
4428.790745
4426.757642
4427.591065
4437.257521
4418.869741
4419.837883
4455.910695
4390.413483
4434.635686
4434.948628
4432.781315
4456.917300
4459.421562
4464.296410
4406.236988
4429.203347
4438.817906
4371.514769
4431.103659
4428.079988
4429.219727
4427.127592
4426.663570
4425.726342
4429.076294
4428.892934
4432.506647
4431.629853
4431.465381
4427.145601
4424.371944
4423.873203
4424.380858
4425.058217
4429.190213
4430.528761
4419.369802
4386.322678
4432.761029
4443.668386
4435.850701
4428.092694
4404.144489
4452.683940
4405.440242
4420.341373
4403.586793
4428.126315
4410.549307
4443.111959
4427.812332
4429.740686
4428.621608
4432.148585
4429.596120
4428.901001
4427.098308
4428.418502
4426.142454
4424.599391
4427.287495
4430.943058
4428.490273
4427.682819
4424.280461
4424.970037
4424.119737
4426.579233
4432.252794
4462.418883
4408.624148
4416.351583
4475.173453
4420.830725
4445.698395
4405.548286
4389.616047
4475.030816
4423.272675
4575.738789
4412.372208
4427.855406
4429.180289
4427.740617
4426.465911
4426.143086
4429.109777
4428.006418
4433.674436
4430.507005
4431.053823
4426.553108
4425.994098
4423.299938
4425.634877
4422.649741
4438.856728
4432.484138
4430.742374
4419.293698
4465.070669
4459.576572
4440.083267
4446.030915
4475.701857
4449.495257
4439.362131
4449.504792
4445.810611
4435.988014
4275.667178
4427.899983
4428.166701
4430.029889
4428.697372
4432.646606
4428.744666
4429.453262
4425.540676
4428.904938
4424.304190
4426.106214
4425.871151
4430.405039
4427.179261
4427.693546
4421.397046
4416.697788
4403.214833
4410.293319
4424.306163
4447.404871
4414.992274
4439.130048
4442.190484
4424.989678
4426.048416
4403.293139
4428.790011
4451.110082
4449.726922
4379.034460
4400.618588