# vtk DataFile Version 2.0
mfree iwf
ASCII

DATASET UNSTRUCTURED_GRID
POINTS 10320 float
0.000000 0.000445 0.000000
0.000000 0.000450 0.000000
0.000000 0.000455 0.000000
0.000000 0.000460 0.000000
0.000000 0.000465 0.000000
0.000000 0.000470 0.000000
0.000000 0.000475 0.000000
0.000000 0.000480 0.000000
0.000000 0.000485 0.000000
0.000000 0.000490 0.000000
-0.000000 0.000496 0.000000
0.000002 0.000500 0.000000
0.000607 0.000859 0.000000
0.000615 0.000863 0.000000
0.000660 0.000877 0.000000
0.000666 0.000877 0.000000
0.000666 0.000877 0.000000
0.000672 0.000879 0.000000
0.000680 0.000879 0.000000
0.000675 0.000879 0.000000
0.000690 0.000882 0.000000
0.000716 0.000886 0.000000
0.000723 0.000885 0.000000
0.000727 0.000884 0.000000
0.000732 0.000883 0.000000
0.000737 0.000882 0.000000
0.000742 0.000881 0.000000
0.000747 0.000880 0.000000
0.000750 0.000879 0.000000
0.000757 0.000877 0.000000
0.000763 0.000876 0.000000
0.000788 0.000874 0.000000
0.000005 0.000445 0.000000
0.000005 0.000450 0.000000
0.000005 0.000455 0.000000
0.000005 0.000460 0.000000
0.000005 0.000465 0.000000
0.000005 0.000470 0.000000
0.000005 0.000475 0.000000
0.000005 0.000480 0.000000
0.000005 0.000485 0.000000
0.000006 0.000490 0.000000
0.000003 0.000496 0.000000
0.000006 0.000499 0.000000
0.000655 0.000874 0.000000
0.000666 0.000870 0.000000
0.000697 0.000881 0.000000
0.000703 0.000882 0.000000
0.000708 0.000883 0.000000
0.000712 0.000883 0.000000
0.000715 0.000882 0.000000
0.000720 0.000881 0.000000
0.000724 0.000879 0.000000
0.000731 0.000879 0.000000
0.000737 0.000877 0.000000
0.000744 0.000876 0.000000
0.000749 0.000873 0.000000
0.000758 0.000873 0.000000
0.000762 0.000872 0.000000
0.000768 0.000870 0.000000
0.000778 0.000873 0.000000
0.000781 0.000872 0.000000
0.000775 0.000873 0.000000
0.000786 0.000873 0.000000
0.000010 0.000445 0.000000
0.000010 0.000450 0.000000
0.000010 0.000455 0.000000
0.000010 0.000460 0.000000
0.000010 0.000465 0.000000
0.000011 0.000470 0.000000
0.000009 0.000475 0.000000
0.000011 0.000480 0.000000
0.000009 0.000486 0.000000
0.000012 0.000490 0.000000
0.000009 0.000497 0.000000
0.000011 0.000498 0.000000
0.000658 0.000871 0.000000
0.000668 0.000869 0.000000
0.000684 0.000876 0.000000
0.000690 0.000878 0.000000
0.000695 0.000879 0.000000
0.000700 0.000880 0.000000
0.000697 0.000873 0.000000
0.000706 0.000875 0.000000
0.000710 0.000876 0.000000
0.000717 0.000877 0.000000
0.000725 0.000876 0.000000
0.000732 0.000875 0.000000
0.000733 0.000872 0.000000
0.000738 0.000869 0.000000
0.000745 0.000872 0.000000
0.000755 0.000872 0.000000
0.000771 0.000870 0.000000
0.000774 0.000870 0.000000
0.000782 0.000868 0.000000
0.000786 0.000864 0.000000
0.000015 0.000445 0.000000
0.000016 0.000450 0.000000
0.000015 0.000456 0.000000
0.000016 0.000460 0.000000
0.000015 0.000465 0.000000
0.000016 0.000470 0.000000
0.000014 0.000476 0.000000
0.000016 0.000480 0.000000
0.000014 0.000485 0.000000
0.000016 0.000489 0.000000
0.000014 0.000495 0.000000
0.000016 0.000498 0.000000
0.000025 0.000500 0.000000
0.000672 0.000872 0.000000
0.000686 0.000875 0.000000
0.000686 0.000871 0.000000
0.000700 0.000874 0.000000
0.000705 0.000880 0.000000
0.000713 0.000874 0.000000
0.000718 0.000872 0.000000
0.000719 0.000867 0.000000
0.000727 0.000872 0.000000
0.000739 0.000862 0.000000
0.000739 0.000874 0.000000
0.000748 0.000865 0.000000
0.000752 0.000869 0.000000
0.000756 0.000866 0.000000
0.000760 0.000867 0.000000
0.000766 0.000865 0.000000
0.000771 0.000865 0.000000
0.000776 0.000864 0.000000
0.000786 0.000861 0.000000
0.000020 0.000445 0.000000
0.000021 0.000450 0.000000
0.000019 0.000456 0.000000
0.000022 0.000459 0.000000
0.000018 0.000466 0.000000
0.000024 0.000468 0.000000
0.000018 0.000474 0.000000
0.000022 0.000478 0.000000
0.000019 0.000486 0.000000
0.000021 0.000491 0.000000
0.000021 0.000497 0.000000
0.000022 0.000499 0.000000
0.000039 0.000500 0.000000
0.000675 0.000861 0.000000
0.000678 0.000869 0.000000
0.000687 0.000866 0.000000
0.000691 0.000874 0.000000
0.000701 0.000868 0.000000
0.000708 0.000864 0.000000
0.000721 0.000872 0.000000
0.000712 0.000869 0.000000
0.000728 0.000862 0.000000
0.000732 0.000858 0.000000
0.000738 0.000857 0.000000
0.000743 0.000864 0.000000
0.000752 0.000863 0.000000
0.000757 0.000860 0.000000
0.000765 0.000860 0.000000
0.000769 0.000860 0.000000
0.000777 0.000859 0.000000
0.000780 0.000862 0.000000
0.000785 0.000857 0.000000
0.000025 0.000445 0.000000
0.000026 0.000450 0.000000
0.000024 0.000455 0.000000
0.000026 0.000461 0.000000
0.000023 0.000465 0.000000
0.000025 0.000472 0.000000
0.000023 0.000476 0.000000
0.000027 0.000481 0.000000
0.000023 0.000485 0.000000
0.000026 0.000488 0.000000
0.000026 0.000492 0.000000
0.000027 0.000500 0.000000
0.000634 0.000870 0.000000
0.000676 0.000871 0.000000
0.000680 0.000873 0.000000
0.000696 0.000869 0.000000
0.000696 0.000864 0.000000
0.000707 0.000870 0.000000
0.000714 0.000864 0.000000
0.000705 0.000868 0.000000
0.000717 0.000859 0.000000
0.000725 0.000867 0.000000
0.000735 0.000867 0.000000
0.000730 0.000867 0.000000
0.000743 0.000868 0.000000
0.000747 0.000859 0.000000
0.000762 0.000862 0.000000
0.000756 0.000856 0.000000
0.000773 0.000859 0.000000
0.000767 0.000855 0.000000
0.000779 0.000855 0.000000
0.000784 0.000852 0.000000
0.000030 0.000445 0.000000
0.000031 0.000450 0.000000
0.000029 0.000456 0.000000
0.000030 0.000460 0.000000
0.000032 0.000464 0.000000
0.000028 0.000469 0.000000
0.000032 0.000472 0.000000
0.000030 0.000477 0.000000
0.000031 0.000486 0.000000
0.000031 0.000492 0.000000
0.000033 0.000497 0.000000
0.000030 0.000499 0.000000
0.000049 0.000500 0.000000
0.000668 0.000863 0.000000
0.000685 0.000862 0.000000
0.000691 0.000867 0.000000
0.000691 0.000862 0.000000
0.000701 0.000863 0.000000
0.000712 0.000859 0.000000
0.000723 0.000863 0.000000
0.000718 0.000862 0.000000
0.000726 0.000858 0.000000
0.000735 0.000862 0.000000
0.000748 0.000854 0.000000
0.000743 0.000857 0.000000
0.000751 0.000858 0.000000
0.000755 0.000852 0.000000
0.000761 0.000855 0.000000
0.000768 0.000850 0.000000
0.000773 0.000853 0.000000
0.000778 0.000851 0.000000
0.000783 0.000848 0.000000
0.000035 0.000445 0.000000
0.000035 0.000450 0.000000
0.000034 0.000456 0.000000
0.000038 0.000455 0.000000
0.000034 0.000467 0.000000
0.000037 0.000473 0.000000
0.000032 0.000479 0.000000
0.000042 0.000478 0.000000
0.000035 0.000483 0.000000
0.000034 0.000488 0.000000
0.000037 0.000491 0.000000
0.000036 0.000498 0.000000
0.000597 0.000852 0.000000
0.000631 0.000869 0.000000
0.000679 0.000861 0.000000
0.000688 0.000858 0.000000
0.000701 0.000858 0.000000
0.000698 0.000853 0.000000
0.000706 0.000860 0.000000
0.000711 0.000853 0.000000
0.000722 0.000856 0.000000
0.000721 0.000850 0.000000
0.000730 0.000849 0.000000
0.000739 0.000853 0.000000
0.000743 0.000851 0.000000
0.000754 0.000847 0.000000
0.000762 0.000850 0.000000
0.000761 0.000840 0.000000
0.000770 0.000848 0.000000
0.000773 0.000846 0.000000
0.000778 0.000846 0.000000
0.000782 0.000842 0.000000
0.000040 0.000445 0.000000
0.000041 0.000450 0.000000
0.000036 0.000462 0.000000
0.000040 0.000458 0.000000
0.000041 0.000463 0.000000
0.000040 0.000468 0.000000
0.000041 0.000472 0.000000
0.000037 0.000477 0.000000
0.000041 0.000488 0.000000
0.000042 0.000491 0.000000
0.000041 0.000497 0.000000
0.000044 0.000498 0.000000
0.000503 0.000725 0.000000
0.000662 0.000869 0.000000
0.000669 0.000860 0.000000
0.000686 0.000851 0.000000
0.000697 0.000859 0.000000
0.000708 0.000856 0.000000
0.000702 0.000854 0.000000
0.000717 0.000854 0.000000
0.000727 0.000853 0.000000
0.000733 0.000854 0.000000
0.000725 0.000848 0.000000
0.000739 0.000846 0.000000
0.000744 0.000845 0.000000
0.000751 0.000843 0.000000
0.000750 0.000849 0.000000
0.000759 0.000848 0.000000
0.000763 0.000846 0.000000
0.000770 0.000841 0.000000
0.000776 0.000841 0.000000
0.000781 0.000838 0.000000
0.000044 0.000445 0.000000
0.000047 0.000450 0.000000
0.000044 0.000454 0.000000
0.000046 0.000461 0.000000
0.000045 0.000468 0.000000
0.000046 0.000474 0.000000
0.000046 0.000479 0.000000
0.000040 0.000483 0.000000
0.000052 0.000486 0.000000
0.000045 0.000483 0.000000
0.000048 0.000493 0.000000
0.000050 0.000498 0.000000
0.000505 0.000734 0.000000
0.000652 0.000873 0.000000
0.000682 0.000865 0.000000
0.000693 0.000856 0.000000
0.000692 0.000852 0.000000
0.000706 0.000850 0.000000
0.000713 0.000847 0.000000
0.000716 0.000850 0.000000
0.000722 0.000844 0.000000
0.000733 0.000844 0.000000
0.000735 0.000850 0.000000
0.000747 0.000848 0.000000
0.000737 0.000843 0.000000
0.000750 0.000839 0.000000
0.000758 0.000843 0.000000
0.000765 0.000841 0.000000
0.000765 0.000836 0.000000
0.000770 0.000838 0.000000
0.000775 0.000837 0.000000
0.000780 0.000833 0.000000
0.000049 0.000445 0.000000
0.000052 0.000450 0.000000
0.000048 0.000456 0.000000
0.000054 0.000458 0.000000
0.000048 0.000464 0.000000
0.000050 0.000472 0.000000
0.000051 0.000467 0.000000
0.000051 0.000477 0.000000
0.000047 0.000488 0.000000
0.000052 0.000491 0.000000
0.000058 0.000492 0.000000
0.000053 0.000498 0.000000
0.000553 0.000813 0.000000
0.000647 0.000866 0.000000
0.000660 0.000864 0.000000
0.000684 0.000855 0.000000
0.000695 0.000848 0.000000
0.000701 0.000848 0.000000
0.000704 0.000844 0.000000
0.000708 0.000847 0.000000
0.000720 0.000840 0.000000
0.000718 0.000845 0.000000
0.000726 0.000839 0.000000
0.000737 0.000837 0.000000
0.000742 0.000840 0.000000
0.000745 0.000840 0.000000
0.000754 0.000838 0.000000
0.000758 0.000831 0.000000
0.000758 0.000836 0.000000
0.000770 0.000832 0.000000
0.000775 0.000831 0.000000
0.000779 0.000828 0.000000
0.000054 0.000445 0.000000
0.000057 0.000450 0.000000
0.000053 0.000454 0.000000
0.000053 0.000463 0.000000
0.000057 0.000467 0.000000
0.000054 0.000472 0.000000
0.000057 0.000477 0.000000
0.000057 0.000481 0.000000
0.000052 0.000483 0.000000
0.000056 0.000486 0.000000
0.000056 0.000497 0.000000
0.000059 0.000496 0.000000
0.000570 0.000829 0.000000
0.000650 0.000874 0.000000
0.000652 0.000867 0.000000
[...]
POINT_DATA 10320
SCALARS density float 1
LOOKUP_TABLE default
4427.925470
4429.402404
4429.182549
4425.742655
4432.337117
4428.897397
4429.010906
4430.072542
4437.542137
4423.458568
4431.023727
4400.709074
4418.208739
4430.250355
4434.887290
4431.609422
4441.536253
4437.700819
4444.708394
4441.831349
4431.385625
4423.763452
4414.882754
4449.099455
4429.709234
4421.568453
4445.039381
4438.013569
4415.337841
4451.253585
4429.424309
4421.910868
4429.639036
4428.764330
4425.057474
4431.284750
4431.882260
4421.605754
4431.518306
4426.251868
4406.867728
4417.255466
4455.805352
4407.756735
4426.550632
4441.599532
4416.826624
4423.711519
4416.874587
4432.091896
4446.143579
4436.812616
4433.078001
4404.855201
4431.681413
4404.791924
4430.013378
4397.025297
4413.431265
4469.340626
4406.970145
4433.500950
4396.224896
4408.022920
4426.294923
4428.639929
4432.924390
4427.880042
4419.551111
4419.632156
4451.441916
4386.174106
4486.151029
4371.453642
4456.193714
4397.472062
4422.618090
4448.830177
4427.346129
4399.815795
4422.744859
4417.655197
4481.399921
4386.073890
4417.982190
4410.197435
4409.674446
4455.162587
4422.052939
4421.069211
4443.401536
4418.031633
4440.286412
4433.947898
4468.929146
4415.655319
4426.066294
4434.128930
4442.291158
4417.187335
4451.789075
4400.541661
4471.531963
4377.518194
4478.841095
4378.020897
4523.104818
4401.469420
4437.977169
4381.412904
4432.178184
4430.673556
4444.599518
4469.526277
4411.708201
4448.155394
4400.923411
4434.812098
4417.720735
4423.213147
4419.294850
4440.155967
4445.657664
4472.872864
4419.991600
4352.713228
4496.990781
4460.804455
4435.813473
4433.695853
4447.067447
4431.177573
4434.292153
4439.973431
4420.204753
4456.270893
4475.212525
4368.593981
4472.549721
4436.914382
4419.384249
4405.779431
4465.330423
4438.301226
4472.018847
4419.013231
4421.117982
4433.933671
4453.961491
4424.273557
4419.324013
4422.057908
4447.296986
4414.358385
4410.567821
4467.359533
4457.241272
4437.631199
4335.884728
4418.701835
4429.074479
4428.180757
4439.834797
4417.259485
4430.632218
4409.714672
4473.761980
4341.943155
4437.991534
4475.222757
4402.321084
4429.017955
4429.855380
4446.237826
4394.820941
4377.344014
4478.212548
4434.581267
4393.930882
4436.465657
4431.948900
4432.295852
4451.798051
4419.914950
4444.030909
4448.897137
4386.643882
4471.963420
4440.980682
4402.190379
4454.862800
4416.033744
4426.625694
4429.559456
4424.784938
4435.918020
4434.852231
4444.748378
4396.096771
4462.195054
4443.725610
4412.014981
4459.057446
4423.473296
4421.240730
4423.628363
4455.862777
4447.026570
4404.696921
4426.394504
4448.997507
4447.740549
4455.149189
4448.317353
4430.916828
4405.256297
4420.690706
4429.584353
4402.545924
4413.685291
4456.907861
4368.043490
4437.121742
4438.100278
4431.184403
4421.991598
4437.354738
4441.267883
4439.870968
4427.921601
4456.019655
4431.271984
4415.594123
4425.526423
4413.174913
4444.532449
4426.641246
4423.288206
4433.779242
4413.801441
4451.746140
4433.549472
4435.092759
4416.498464
4403.620323
4444.011556
4434.700984
4444.322468
4417.882584
4429.578603
4426.251378
4467.423034
4463.563370
4439.713666
4406.905623
4419.075440
4431.282149
4426.969756
4423.678489
4440.477885
4420.119355
4434.976383
4445.428620
4412.606587
4452.555389
4430.619349
4434.815168
4423.715181
4436.425270
4399.184919
4429.751805
4428.746149
4397.065540
4432.692137
4425.995345
4429.399114
4434.054865
4427.346166
4436.913491
4416.534298
4410.433938
4411.350441
4458.351383
4452.756717
4421.367787
4399.270638
4430.965863
4437.490837
4438.630822
4414.960719
4417.373646
4429.899011
4403.342465
4424.801351
4440.481223
4421.482393
4442.826127
4421.636653
4471.464896
4433.218384
4436.256272
4445.935403
4383.953257
4467.152113
4412.195006
4430.631942
4427.740590
4454.189047
4431.916296
4429.296900
4422.153928
4446.366262
4446.280458
4457.899794
4425.383212
4444.441229
4405.109881
4453.900264
4419.316840
4423.595377
4430.558541
4423.448741
4423.261052
4415.335533
4450.494441
4444.314604
4427.562739
4384.527038
4381.148288
4425.445685
4510.431691
4410.694325
4437.968854
4434.719192
4427.763094
4447.500723
4453.377311
4409.188515
4429.728131
4442.998084
4433.543667
4419.948621
4452.353034
4430.139561
4441.195143
4420.665421
4432.343514
4465.799039
4403.064432
4427.666714
4427.490694
4430.439681
4436.292632
4430.314540
4445.811090
4402.346966
4415.311257
4458.823938
4417.704805
4448.361126
4472.475522
4370.174956
4419.196319
4409.616998
4432.506787
4429.536868
4424.935274
4422.913586
4457.991368
4417.104581
4408.414369
4416.284377
4416.088054
4423.872402
4415.317578
4409.260183
4417.170679
4435.696619
4430.495494
4415.482600
4426.627330
4429.277948
4428.903050
4433.278020
4425.596418
4434.250845
4419.053368
4393.651106
4448.702950
4430.342813
4410.345636
4415.668614
4443.439294
4409.374404
4440.130403
4431.569429
4407.674049
4429.525878
4441.208298
4383.609774
4378.848089
4451.802751
4421.982589
4455.152682
4443.535618
4420.412180
4451.662421
4421.260938
4398.551243
4426.850277
4438.398139
4420.389873
4424.050381
4444.232038
4421.767569
4436.088069
4439.988465
4416.057391
4445.996325
4390.338832
4457.060102
4448.926561
4449.223061
4392.151419
4469.664589
4384.797376
4462.407259
4428.032288
4417.127567
4424.880595
4433.287996
4465.491713
4436.236532
4403.982790
4432.008878
4405.749755
4387.435927
4437.540243
4449.481880
4439.648642
4441.136208
4416.748122
4441.507749
4446.591679
4420.861205
4440.094783
4420.771225
4425.696028
4423.423138
4424.668914
4437.251056
4439.701436
4463.764223
4452.459528
4423.298125
4429.112741
4417.293446
4407.900930
4436.801022
4454.322020
4427.017912
4428.517708
4436.455602
4451.803471
4463.203411
4445.721315
4454.450707
4462.779230
4366.360742
4444.645773
4446.371187
4431.103380
4432.309771
4418.769832
4432.300484
4405.621740
4417.873837
4407.608910
4443.009780
4434.380638
4432.733331
4428.994931
4442.281071
4411.826293
4394.887171
4436.347654
4476.174888
4427.622396
4457.952820
4360.270904
4407.860803
4456.772098
4434.397154
4410.947938
4422.082725
4411.916340
4423.155404
4440.495426
4409.056215
4431.489174
4430.286274
4396.318684
4420.414424
4443.618056
4407.872918
4448.067536
4418.679655
4436.706934
4427.833013
4439.010616
4421.635179
4418.362806
4406.534069
4411.311302
4457.135673
4419.436162
4384.860802
4417.699485
4378.590440
4483.235423
4439.783920
4501.662449
4393.833323
4428.238323
4429.038514
4421.391575
4437.612461
4424.094043
4464.702763
4442.303927
4418.627496
4437.745768
4442.051671
4427.339347
4463.348896
4416.317896
4431.167592
4417.522581
4425.194774
4461.465358
4402.790391
4452.462965
4420.549924
4441.608343
4446.769508
4413.399101
4430.798050
4437.745264
4437.700201
4410.993707
4428.224795
4418.478266
4400.116736
4392.245896
4441.694884
4488.535225
4431.303821
4435.573395
4446.174813
4440.543550
4411.158922
4407.979269
4470.546261
4480.846235
4405.486899
4452.463921
4431.465950
4442.343884
4415.944095
4444.569257
4429.280321
4404.958526
4451.544670
4434.847372
4420.007546
4432.459361
4425.078759
4434.829403
4425.825415
4412.836960
4442.844399
4442.192106
4451.656409
4455.503843
4447.168280
4406.847864
4409.837290
4426.540620
4414.730937
4418.868222
4428.515207
4424.731385
4427.444724
4412.162533
4464.342902
4431.937594
4409.891437
4446.542042
4411.315645
4401.611951
4437.597789
4444.729566
4438.570663
4440.144472
4444.876259
4416.001425
4429.552941
4417.952682
4446.000940
4435.166346
4441.300807
4421.798524
4420.311728
4422.044240
4408.008383
4416.779112
4441.001467
4442.490055
4431.518291
4431.634602
4427.415875
4438.719224
4445.843413
4447.299186
4441.468627
4465.369356
4423.557932
4439.530510
4490.349838
4426.139939
4445.823189
4426.592345
4447.953611
4431.113965
4412.695334
4437.047844
4393.899382
4441.092201
4446.801832
4432.837973
4414.575559
4384.265568
4427.909027
4441.892386
4425.870324
4419.384299
4414.226841
4395.790701
4454.178655
4488.544257
4395.431500
4513.533967
4427.178060
4429.076503
4432.374837
4455.351328
4441.221289
4426.121584
4405.259333
4427.785310
4420.729528
4457.544818
4457.586770
4466.433200
4439.795511
4447.576947
4413.040423
4465.558284
4452.012353
4440.487517
4401.097149
4437.563403
4448.604983
4427.163778
4424.002611
4425.664383
4442.089506
4440.839102
4424.324846
4426.132966
4447.279944
4382.930262
4439.486901
4432.550460
4416.783457
4432.681272
4420.218330
4437.010167
4451.728927
4410.858627
4464.532215
4449.960782
4397.049019
4351.110022
4427.518234
4413.598590
4446.768315
4415.649172
4449.615022
4399.505559
4414.257553
4421.828063
4428.855741
4441.965665
4412.585910
4459.157817
4434.582093
4405.880220
4439.714675
4414.689211
4415.928557
4399.591659
4443.433770
4407.014710
4377.249091
4469.821760
4428.442774
4440.823248
4400.666642
4457.811018
4465.094830
4445.164174
4427.196338
4422.437670
4431.934303
4380.662319
4387.764182
4438.946911
4387.562083
4387.805340
4440.822244
4443.020466
4441.451245
4419.277737
4417.747803
4419.688083
4431.725131
4420.902569
4410.227624
4433.764283
4446.301191
4447.878970
4397.113005
4452.526687
4450.144217
4452.953962
4412.524955
4426.397227
4427.820102
4440.862648
4412.795715
4378.092666
4413.984290
4454.875836
4435.289319
4481.588212
4404.605666
4432.695071
4442.634297
4440.820657
4458.826043
4465.134522
4429.016692
4424.256338
4436.699403
4419.606941
4459.551419
4419.783715
4424.297991
4429.561710
4429.250498
4429.410165
4429.509522
4429.450198
4429.649340
4429.773767
4430.292550
4430.772094
4431.287034
4431.296157
4431.048255
4430.684476
4430.098106
4426.072301
4429.203960
4429.134362
4429.781861
4430.302599
4430.895791
4431.255091
4431.312081
4430.915509
4429.839885
4429.258638
4429.183203
4429.832934
4430.534830
4430.705115
4427.306283
4428.888615
4428.705593
4428.785896
4428.908843
4428.333873
4428.595920
4428.513764
4429.453999
4430.751989
4431.802573
4431.769233
4430.770722
4430.328942
4428.879311
4427.948948
4428.923829
4429.265113
4429.417254
4430.210541
4430.654769
4431.209931
4431.135580
4430.692161
4429.217284
4428.170647
4428.142766
4428.397670
4429.229526
4429.959883
4428.499689
4428.898768
4428.918332
4428.713091
4428.633571
4428.092183
4428.118194
4427.960307
4429.042050
4430.023849
4431.748998
4430.894001
4431.101317
4428.525809
4428.989751
4428.575803
4429.021328
4429.367857
4429.142242
4430.320423
4430.145128
4431.270776
4430.610684
4430.568543
4428.640039
4427.904805
4427.253803
4428.507759
4428.019828
4429.467241
4428.612248
4428.860453
4429.098045
4428.517101
4428.588006
4427.849116
4427.908426
4427.575203
4428.799718
4429.661187
4431.371211
4430.816535
4429.814617
4428.286674
4427.828193
4428.728902
4429.063609
4429.270757
4429.191738
4430.044624
4430.102063
4430.945507
4430.545267
4430.222886
4428.451910
4427.837378
4426.912470
4428.682170
4427.809783
4428.873059
4428.406870
4428.864368
4429.024049
4428.272035
4428.608955
4427.530760
4427.841368
4427.186314
4428.609590
4429.537408
4431.081567
4431.214707
4430.630797
4428.759381
4431.066564
4428.617989
4429.055527
4429.096666
4429.200435
4429.753824
4430.095800
4430.536055
4430.536197
4429.909235
4428.263735
4427.940650
4426.811193
4429.286174
4429.512845
4428.669030
4428.289892
4429.027253
4428.592401
4428.504928
4428.069385
4427.641641
4427.359686
4427.028660
4428.246292
4429.471418
4430.561782
4431.421580
4429.791213
4429.617821
4429.463464
4428.362372
4429.034876
4428.892511
4429.028029
4429.574529
4429.879772
4430.166051
4430.589993
4429.463471
4428.352447
4427.389331
4426.698704
4428.510241
4428.031319
4429.473732
4428.326467
4428.825467
4428.575711
4428.399914
4427.813080
4427.531693
4427.143715
4426.802517
4427.950987
4429.107366
4430.393480
4430.889875
4430.020806
4429.285912
4431.190817
4454.756740
4414.275206
4434.807907
4442.997524
4427.922734
4465.459952
4433.276846
4430.131109
4371.438609
4438.053679
4464.272164
4403.072707
4423.094448
4460.713452
4418.361027
4428.111166
4428.248260
4428.818167
4428.835102
4428.644587
4429.577818
4429.412650
4430.251428
4430.096504
4429.530527
4427.679552
4427.208605
4426.400495
4428.034914
4429.300228
4430.358766
4451.294463
4405.897053
4420.531332
4395.690166
4423.128584
4443.889529
4432.618797
4363.247162
4414.337579
4449.196087
4386.169782
4443.757082
4426.119738
4460.474767
4404.074688
4393.877544
4427.796719
4428.590645
4428.576372
4427.902949
4427.948653
4426.930267
4427.188304
4426.251305
4427.511780
4428.585954
4429.936623
4430.019081
4429.698563
4428.347664
4430.008704
4433.260580
4434.750927
4413.047183
4446.796927
4409.002858
4446.045259
4418.498054
4425.336589
4413.794539
4452.830752
4429.885800
4412.121327
4444.403101
4420.905659
4459.555790
4438.503001
4428.016221
4428.626801
4428.583786
4428.501964
4429.080667
4429.246526
4429.785589
4429.843801
4429.153565
4427.137685
4426.894065
4425.530601
4427.365783
4426.097613
4429.318982
4417.417882
4399.968971
4429.139360
4393.554351
4409.702530
4446.077550
4424.182334
4428.355487
4437.354924
4413.526279
4421.478605
4435.651491
4388.568611
4388.425587
4425.223018
4447.518815
4427.529545
4428.483299
4428.423158
4427.472445
4427.906638
4426.483846
4427.130061
4425.807434
4427.148002
4428.178285
4429.293455
4429.108807
4428.211186
4425.599348
4424.585709
4440.084797
4444.225066
4437.166548
4466.851111
4447.954068
4431.955293
4444.489270
4432.625423
4410.356412
4427.598855
4445.553119
4423.399891
4406.901957
4440.530186
4432.344526
4420.908152
4427.601750
4428.592447
4428.217325
4428.544043
4428.646192
4429.234906
4429.484865
4429.800202
4428.933678
4426.766691
4426.496798
4425.262752
4426.042732
4425.799423
4425.070342
4415.504300
4415.342893
4445.657466
4419.649282
4494.749572
4387.648733
4442.660878
4434.460992
4447.076571
4410.873944
4378.234698
4450.230681
4408.914153
4426.816997
4441.506536
4419.422974
4427.677267
4428.370386
4428.293429
4427.521765
4427.596260
4426.828768
4426.751057
4426.005131
4426.492544
4428.386008
4428.318661
4429.137046
4426.997586
4426.018074
4425.903374
4456.772874
4414.520169
4432.976926
4403.258569
4360.509438
4444.610982
4427.900074
4431.584376
4430.188268
4414.837914
4428.504934
4473.241161
4467.756400
4383.593841
4469.644264
4398.371917
4427.392052
4428.367471
4428.321450
4428.078356
4428.911948
4428.783265
4429.478635
4429.617050
4428.922823
4426.406360
4426.903664
4424.857448
4426.597072
4426.655096
4425.731990
4416.809662
4419.878131
4431.178664
4460.760105
4415.247163
4460.999432
4413.138391
4415.307627
4423.749077
4412.229265
4452.750532
4380.383248
4431.503207
4407.160031
4429.105584
4444.702662
4427.414427
4428.176413
4428.271731
4427.396557
4427.707201
4426.309528
4427.379449
4424.979735
4427.107875
4427.447427
4428.861130
4429.004417
4427.960328
4426.617640
4428.551047
4424.062278
4421.914422
4418.179644
4412.809406
4458.829963
4434.344090
4433.827062
4424.525104
4386.845073
4437.861622
4409.013880
4385.423420
4427.316154
4442.304030
4421.768534
4395.872104
4427.380251
4428.048092
4428.591491
4427.430133
4429.157492
4428.312741
4429.230058
4429.570486
4428.556930
4426.370877
4427.028087
4424.889901
4428.062622
4426.321363
4429.059807
4422.054229
4440.724782
4462.745731
4444.043662
4373.880012
4413.695234
4430.361399
4442.595912
4414.970424
4445.802738
4425.162996
4429.872352
4366.114867
4471.969326
4448.772055
4443.818064
4427.211613
4428.173134
4428.088122
4427.469701
4427.358141
4426.170357
4427.080229
4424.787195
4426.481288
4427.346234
4428.426849
4428.964566
4427.539219
4426.437508
4428.095840
4434.996662
4440.053727
4436.109507
4448.978007
4443.654685
4431.625603
4437.293662
4477.035429
4413.650692
4441.122013
4429.563820
4440.038800
4449.638103
4358.441816
4415.191512
4384.414199
4427.394912
4428.210064
4428.073747
4427.614247
4428.365321
4428.307720
4428.759748
4429.243642
4428.702964
4426.196168
4426.929481
4424.969184
4427.043733
4426.750363
4425.308873
4413.770172
4440.074228
4405.201018
4388.095619
4389.719205
4421.733990
4449.531098
4447.994800
4465.832502
4412.519864
4451.547623
4393.336846
4429.366348
4414.603863
4426.023002
4443.396041
4427.059168
4428.029331
4428.273626
4426.743470
4427.742418
4425.835378
4427.135560
4425.213433
4426.067894
4427.509310
4427.904968
4428.378061
4426.061221
4425.991815
4425.565959
4419.381212
4439.294416
4435.905418
4404.548366
4428.229812
4442.675019
4437.941500
4437.651938
4419.608594
4432.590165
4400.490387
4462.344173
4423.481607
4443.799147
4505.798080
4456.882511
4427.271860
4428.452843
4427.507260
4428.186506
4427.763795
4429.043761
4428.419880
4429.577677
4428.632157
4426.349542
4426.205220
4425.076807
4426.473674
4425.125931
4427.457111
4447.864378
4446.530737
4424.766053
4441.442468
4432.942133
4421.375264
4425.015863
4437.900680
4410.485677
4403.820586
4434.258104
4441.953554
4414.461211
4440.838427
4420.593545
4452.127019
4426.884291
4428.392993
4427.784151
4427.464112
4427.224578
4426.762853
4426.428224
4425.549242
4425.510472
4426.786995
4427.620900
4427.220672
4425.831147
4425.344099
4423.920864
4431.164415
4404.635064
4427.348267
4425.745564
4448.086294
4434.102445
4416.075035
4448.919247
4420.170804
4451.308573
4412.119530
4406.361782
4417.035791
4423.117695
4404.054410
4403.770706
4427.076296
4428.169905
4427.939142
4427.362534
4428.734815
4428.099159
4428.802542
4429.154706
4428.721891
4426.571153
4426.298745
4425.364323
4425.752921
4425.937994
4425.399932
4410.160014
4432.194031
4416.799664
4426.403677
4363.302122
4441.316644
4463.019809
4431.556929
4399.191788
4464.420702
4411.028858
4442.816993
4450.463962
4436.160194
4400.392152
4431.059789
4427.159297
4428.273857
4427.916568
4427.897775
4426.884899
4427.156491
4426.737251
4425.685013
4425.888520
4426.670881
4427.519376
4427.237234
4426.027290
4424.048342
4426.945653
4405.917867
4416.778791
4409.768385
4455.978484
4392.043950
4433.386692
4446.056241
4451.331740
4421.096062
4444.696050
4453.987983
4415.359999
4399.213123
4442.374470
4434.159337
4427.353386
4427.141576
4428.125409
4427.755766
4427.028121
4428.271251
4427.543680
4428.537601
4428.734319
4427.909292
4425.981548
4426.541300
4423.563205
4426.554643
4424.720493
4424.002231
4431.761440
4422.615076
4442.283241
4436.112499
4380.276617
4410.054211
4445.173476
4426.765477
4455.254707
4462.374772
4438.512645
4421.105454
4452.469571
4441.646513
4472.262018
4432.716217
4426.948540
4427.521363
4428.605218
4425.896710
4427.910460
4424.672758
4427.350379
4423.275993
4425.546385
4425.428466
4426.378123
4427.527472
4423.817863
4423.512110
4425.455183
4418.150032
4471.309112
4420.341020
4466.265933
4379.162478
4438.099743
4424.305273
4419.168962
4425.985011
4444.495576
4444.708674
4448.127457
4425.970886
4451.016168
4379.927230
4415.974223
4427.114322
4428.159625
4427.422783
4427.402697
4427.236336
4428.121073
4428.212005
4429.134614
4428.681039
4427.412319
4427.394412
4424.650090
4425.871727
4423.887693
4424.715855
4424.468905
4425.087249
4418.784314
4379.399262
4418.718572
4453.860642
4725.240092
4411.696004
4448.235210
4447.124738
4395.859974
4418.188875
4378.475328
4423.673584
4351.162390
4433.880422
4426.914857
4428.133584
4427.570697
4427.145624
4427.591137
4426.568657
4427.247564
4425.858899
4426.734468
4426.012832
4428.085959
4426.089982
4424.647947
4423.466305
4424.260457
4415.528205
4444.107421
4438.692475
4419.984509
4441.884686
4423.938297
4455.178511
4468.409458
4389.226104
4431.421959
4439.256451
4420.650469
4442.585262
4415.028260
4532.759862
4417.760401
4426.833189
4427.887038
4428.250234
4426.783561
4428.362938
4427.714296
4428.063531
4428.596454
4428.515110
4426.406456
4425.405560
4425.127832
4425.525764
4424.403283
4423.021363
4434.289381
4418.105855
4435.961981
4410.992447
4470.727176
4464.251805
4459.196251
4377.561911
4451.930300
4445.400026
4455.556331
4424.840233
4446.486264
4423.508175
4326.582292
4430.137139
4427.273562
4428.595706
4427.417351
4428.613770
4426.438874
4427.123608
4425.642585
4425.588225
4424.108118
4424.530050
4425.007322
4423.802327
4423.592444
4423.746570
4422.548081
4434.591687
4419.646748
4403.376437
4432.123805
4452.586934
4409.377180
4475.626484
4462.936479
4425.323372
4407.254575
4417.305567
4455.549193
4442.672359
4379.316828
4387.791949
4406.621862