# vtk DataFile Version 2.0
mfree iwf
ASCII

DATASET UNSTRUCTURED_GRID
POINTS 9813 float
0.000000 0.000445 0.000000
0.000000 0.000450 0.000000
0.000000 0.000455 0.000000
0.000000 0.000460 0.000000
0.000000 0.000465 0.000000
0.000000 0.000470 0.000000
0.000000 0.000475 0.000000
0.000000 0.000480 0.000000
0.000000 0.000485 0.000000
0.000000 0.000490 0.000000
-0.000000 0.000496 0.000000
0.000002 0.000500 0.000000
0.000444 0.000783 0.000000
0.000451 0.000789 0.000000
0.000490 0.000815 0.000000
0.000495 0.000817 0.000000
0.000495 0.000817 0.000000
0.000501 0.000821 0.000000
0.000508 0.000824 0.000000
0.000505 0.000823 0.000000
0.000516 0.000829 0.000000
0.000541 0.000841 0.000000
0.000547 0.000842 0.000000
0.000552 0.000842 0.000000
0.000556 0.000843 0.000000
0.000562 0.000843 0.000000
0.000566 0.000844 0.000000
0.000572 0.000844 0.000000
0.000575 0.000844 0.000000
0.000582 0.000845 0.000000
0.000589 0.000845 0.000000
0.000614 0.000850 0.000000
0.000005 0.000445 0.000000
0.000005 0.000450 0.000000
0.000005 0.000455 0.000000
0.000005 0.000460 0.000000
0.000005 0.000465 0.000000
0.000005 0.000470 0.000000
0.000005 0.000475 0.000000
0.000005 0.000480 0.000000
0.000005 0.000485 0.000000
0.000006 0.000490 0.000000
0.000004 0.000496 0.000000
0.000006 0.000499 0.000000
0.000485 0.000812 0.000000
0.000497 0.000811 0.000000
0.000524 0.000830 0.000000
0.000529 0.000833 0.000000
0.000534 0.000835 0.000000
0.000538 0.000836 0.000000
0.000541 0.000837 0.000000
0.000545 0.000837 0.000000
0.000551 0.000837 0.000000
0.000557 0.000838 0.000000
0.000563 0.000839 0.000000
0.000570 0.000840 0.000000
0.000576 0.000839 0.000000
0.000585 0.000841 0.000000
0.000589 0.000841 0.000000
0.000595 0.000841 0.000000
0.000604 0.000846 0.000000
0.000607 0.000847 0.000000
0.000601 0.000846 0.000000
0.000612 0.000848 0.000000
0.000010 0.000445 0.000000
0.000010 0.000450 0.000000
0.000010 0.000455 0.000000
0.000010 0.000460 0.000000
0.000010 0.000465 0.000000
0.000011 0.000470 0.000000
0.000010 0.000475 0.000000
0.000011 0.000479 0.000000
0.000009 0.000486 0.000000
0.000012 0.000489 0.000000
0.000009 0.000497 0.000000
0.000011 0.000498 0.000000
0.000490 0.000809 0.000000
0.000501 0.000811 0.000000
0.000513 0.000821 0.000000
0.000518 0.000826 0.000000
0.000522 0.000828 0.000000
0.000527 0.000830 0.000000
0.000527 0.000823 0.000000
0.000536 0.000827 0.000000
0.000538 0.000830 0.000000
0.000546 0.000833 0.000000
0.000552 0.000833 0.000000
0.000558 0.000835 0.000000
0.000563 0.000832 0.000000
0.000568 0.000832 0.000000
0.000573 0.000836 0.000000
0.000582 0.000839 0.000000
0.000597 0.000841 0.000000
0.000600 0.000843 0.000000
0.000609 0.000843 0.000000
0.000614 0.000841 0.000000
0.000015 0.000445 0.000000
0.000015 0.000450 0.000000
0.000015 0.000455 0.000000
0.000016 0.000460 0.000000
0.000015 0.000466 0.000000
0.000016 0.000470 0.000000
0.000014 0.000476 0.000000
0.000016 0.000480 0.000000
0.000014 0.000485 0.000000
0.000016 0.000489 0.000000
0.000014 0.000495 0.000000
0.000017 0.000497 0.000000
0.000025 0.000500 0.000000
0.000503 0.000814 0.000000
0.000515 0.000822 0.000000
0.000518 0.000818 0.000000
0.000529 0.000825 0.000000
0.000532 0.000832 0.000000
0.000541 0.000827 0.000000
0.000545 0.000828 0.000000
0.000551 0.000824 0.000000
0.000556 0.000831 0.000000
0.000568 0.000827 0.000000
0.000566 0.000836 0.000000
0.000577 0.000832 0.000000
0.000580 0.000835 0.000000
0.000586 0.000833 0.000000
0.000588 0.000836 0.000000
0.000595 0.000836 0.000000
0.000601 0.000837 0.000000
0.000605 0.000838 0.000000
0.000615 0.000837 0.000000
0.000020 0.000445 0.000000
0.000020 0.000450 0.000000
0.000019 0.000455 0.000000
0.000021 0.000460 0.000000
0.000019 0.000466 0.000000
0.000022 0.000469 0.000000
0.000019 0.000474 0.000000
0.000022 0.000479 0.000000
0.000019 0.000486 0.000000
0.000021 0.000491 0.000000
0.000021 0.000497 0.000000
0.000022 0.000499 0.000000
0.000039 0.000500 0.000000
0.000508 0.000807 0.000000
0.000511 0.000814 0.000000
0.000517 0.000814 0.000000
0.000521 0.000822 0.000000
0.000531 0.000820 0.000000
0.000539 0.000821 0.000000
0.000550 0.000828 0.000000
0.000544 0.000823 0.000000
0.000557 0.000826 0.000000
0.000562 0.000820 0.000000
0.000570 0.000821 0.000000
0.000574 0.000827 0.000000
0.000582 0.000829 0.000000
0.000587 0.000828 0.000000
0.000596 0.000830 0.000000
0.000599 0.000832 0.000000
0.000607 0.000833 0.000000
0.000609 0.000837 0.000000
0.000615 0.000833 0.000000
0.000025 0.000445 0.000000
0.000025 0.000450 0.000000
0.000025 0.000455 0.000000
0.000026 0.000460 0.000000
0.000024 0.000465 0.000000
0.000026 0.000472 0.000000
0.000023 0.000476 0.000000
0.000027 0.000480 0.000000
0.000024 0.000485 0.000000
0.000026 0.000488 0.000000
0.000027 0.000492 0.000000
0.000027 0.000500 0.000000
0.000467 0.000801 0.000000
0.000507 0.000815 0.000000
0.000509 0.000817 0.000000
0.000525 0.000819 0.000000
0.000528 0.000815 0.000000
0.000535 0.000823 0.000000
0.000544 0.000818 0.000000
0.000537 0.000817 0.000000
0.000549 0.000820 0.000000
0.000555 0.000823 0.000000
0.000561 0.000828 0.000000
0.000563 0.000825 0.000000
0.000572 0.000830 0.000000
0.000578 0.000824 0.000000
0.000591 0.000831 0.000000
0.000589 0.000824 0.000000
0.000604 0.000831 0.000000
0.000598 0.000826 0.000000
0.000610 0.000830 0.000000
0.000615 0.000828 0.000000
0.000030 0.000445 0.000000
0.000030 0.000450 0.000000
0.000029 0.000456 0.000000
0.000031 0.000460 0.000000
0.000032 0.000465 0.000000
0.000029 0.000468 0.000000
0.000031 0.000472 0.000000
0.000031 0.000477 0.000000
0.000031 0.000486 0.000000
0.000031 0.000492 0.000000
0.000033 0.000497 0.000000
0.000031 0.000499 0.000000
0.000049 0.000500 0.000000
0.000500 0.000804 0.000000
0.000518 0.000809 0.000000
0.000523 0.000814 0.000000
0.000524 0.000811 0.000000
0.000533 0.000814 0.000000
0.000546 0.000814 0.000000
0.000556 0.000819 0.000000
0.000549 0.000816 0.000000
0.000559 0.000816 0.000000
0.000567 0.000820 0.000000
0.000581 0.000820 0.000000
0.000575 0.000820 0.000000
0.000583 0.000825 0.000000
0.000587 0.000819 0.000000
0.000593 0.000825 0.000000
0.000603 0.000821 0.000000
0.000604 0.000826 0.000000
0.000610 0.000825 0.000000
0.000616 0.000824 0.000000
0.000035 0.000445 0.000000
0.000035 0.000450 0.000000
0.000036 0.000454 0.000000
0.000036 0.000457 0.000000
0.000035 0.000467 0.000000
0.000037 0.000472 0.000000
0.000032 0.000479 0.000000
0.000042 0.000479 0.000000
0.000035 0.000483 0.000000
0.000034 0.000488 0.000000
0.000038 0.000491 0.000000
0.000036 0.000498 0.000000
0.000437 0.000773 0.000000
0.000464 0.000799 0.000000
0.000512 0.000805 0.000000
0.000522 0.000806 0.000000
0.000534 0.000809 0.000000
0.000534 0.000804 0.000000
0.000539 0.000813 0.000000
0.000545 0.000809 0.000000
0.000555 0.000814 0.000000
0.000556 0.000809 0.000000
0.000565 0.000808 0.000000
0.000573 0.000816 0.000000
0.000575 0.000814 0.000000
0.000590 0.000814 0.000000
0.000595 0.000819 0.000000
0.000597 0.000812 0.000000
0.000601 0.000822 0.000000
0.000607 0.000819 0.000000
0.000611 0.000821 0.000000
0.000617 0.000819 0.000000
0.000040 0.000445 0.000000
0.000041 0.000450 0.000000
0.000037 0.000461 0.000000
0.000042 0.000457 0.000000
0.000042 0.000463 0.000000
0.000039 0.000468 0.000000
0.000041 0.000473 0.000000
0.000037 0.000477 0.000000
0.000042 0.000488 0.000000
0.000042 0.000491 0.000000
0.000042 0.000497 0.000000
0.000045 0.000498 0.000000
0.000385 0.000623 0.000000
0.000494 0.000808 0.000000
0.000506 0.000802 0.000000
0.000521 0.000798 0.000000
0.000529 0.000809 0.000000
0.000541 0.000809 0.000000
0.000538 0.000806 0.000000
0.000551 0.000810 0.000000
0.000562 0.000812 0.000000
0.000566 0.000815 0.000000
0.000560 0.000807 0.000000
0.000575 0.000809 0.000000
0.000581 0.000814 0.000000
0.000586 0.000811 0.000000
0.000584 0.000816 0.000000
0.000592 0.000819 0.000000
0.000599 0.000816 0.000000
0.000605 0.000814 0.000000
0.000612 0.000816 0.000000
0.000617 0.000814 0.000000
0.000044 0.000445 0.000000
0.000046 0.000450 0.000000
0.000045 0.000454 0.000000
0.000045 0.000461 0.000000
0.000045 0.000467 0.000000
0.000046 0.000473 0.000000
0.000046 0.000479 0.000000
0.000040 0.000483 0.000000
0.000052 0.000486 0.000000
0.000045 0.000483 0.000000
0.000048 0.000493 0.000000
0.000050 0.000498 0.000000
0.000385 0.000633 0.000000
0.000484 0.000810 0.000000
0.000514 0.000810 0.000000
0.000527 0.000804 0.000000
0.000529 0.000802 0.000000
0.000543 0.000804 0.000000
0.000548 0.000804 0.000000
0.000552 0.000805 0.000000
0.000560 0.000803 0.000000
0.000569 0.000807 0.000000
0.000570 0.000812 0.000000
0.000581 0.000809 0.000000
0.000572 0.000804 0.000000
0.000588 0.000807 0.000000
0.000593 0.000811 0.000000
0.000601 0.000811 0.000000
0.000603 0.000807 0.000000
0.000608 0.000811 0.000000
0.000612 0.000811 0.000000
0.000617 0.000809 0.000000
0.000049 0.000445 0.000000
0.000051 0.000450 0.000000
0.000048 0.000457 0.000000
0.000053 0.000459 0.000000
0.000049 0.000463 0.000000
0.000050 0.000472 0.000000
0.000051 0.000468 0.000000
0.000051 0.000477 0.000000
0.000047 0.000488 0.000000
0.000052 0.000491 0.000000
0.000058 0.000492 0.000000
0.000053 0.000498 0.000000
0.000406 0.000722 0.000000
0.000481 0.000802 0.000000
0.000494 0.000804 0.000000
0.000519 0.000802 0.000000
0.000532 0.000798 0.000000
0.000536 0.000799 0.000000
0.000541 0.000800 0.000000
0.000545 0.000798 0.000000
0.000558 0.000798 0.000000
0.000555 0.000802 0.000000
0.000564 0.000798 0.000000
0.000577 0.000801 0.000000
0.000579 0.000805 0.000000
0.000583 0.000804 0.000000
0.000591 0.000805 0.000000
0.000597 0.000801 0.000000
0.000596 0.000806 0.000000
0.000607 0.000805 0.000000
0.000613 0.000806 0.000000
0.000618 0.000804 0.000000
0.000054 0.000445 0.000000
0.000057 0.000450 0.000000
0.000054 0.000454 0.000000
0.000054 0.000463 0.000000
0.000057 0.000466 0.000000
0.000055 0.000472 0.000000
0.000057 0.000477 0.000000
0.000057 0.000481 0.000000
0.000052 0.000482 0.000000
0.000057 0.000486 0.000000
0.000056 0.000497 0.000000
0.000059 0.000496 0.000000
0.000418 0.000743 0.000000
0.000481 0.000809 0.000000
0.000487 0.000804 0.000000
[...]
POINT_DATA 9813
SCALARS density float 1
LOOKUP_TABLE default
4427.584466
4429.808647
4425.933899
4422.270117
4433.293632
4431.103048
4428.687152
4432.436474
4435.948407
4416.896791
4432.239984
4403.058124
4419.726566
4437.034431
4431.706272
4428.729351
4440.169375
4425.212273
4437.350842
4441.688222
4437.663005
4425.011081
4409.164826
4444.423574
4444.244008
4432.455664
4446.394532
4445.311552
4413.197899
4452.115566
4432.270551
4431.785122
4430.594604
4430.402648
4433.757334
4437.323999
4430.610260
4419.301489
4429.137321
4428.125154
4416.905159
4418.687857
4454.397409
4408.717806
4423.748856
4434.545514
4415.856728
4406.091140
4422.900417
4409.679703
4415.164309
4461.158576
4423.328619
4382.370659
4421.101955
4400.049318
4429.627039
4400.697853
4411.872934
4454.030258
4404.372553
4418.181798
4405.057694
4409.368690
4429.301202
4436.626062
4424.098755
4424.938191
4421.035612
4421.068202
4459.104409
4389.496032
4472.283801
4394.374562
4448.480978
4396.707245
4428.885991
4440.528012
4404.677675
4383.468673
4395.336572
4408.990229
4489.364130
4404.219277
4454.924014
4406.358258
4413.646238
4460.316463
4420.924103
4401.916337
4453.875294
4424.413800
4454.961740
4442.201352
4468.715056
4432.276149
4430.609399
4435.509048
4447.496617
4418.981978
4446.865224
4406.516946
4452.640795
4390.667972
4472.270225
4361.022500
4518.069220
4408.914509
4436.341258
4410.695954
4436.985204
4442.273513
4463.061693
4447.314897
4434.511471
4430.295877
4432.105222
4432.036414
4415.366380
4437.731393
4401.921309
4450.304464
4429.988211
4473.323588
4413.019040
4353.558110
4491.131156
4464.764200
4430.246570
4430.833608
4431.177301
4428.441173
4446.637659
4415.030004
4435.963050
4420.281979
4473.050112
4370.885888
4476.968928
4436.462238
4419.723590
4409.529868
4447.809735
4377.318047
4523.680373
4425.292170
4477.284796
4448.397131
4412.593327
4402.195372
4413.381838
4422.508541
4442.277543
4426.611572
4416.031811
4478.375846
4455.725327
4447.422202
4322.842248
4421.092079
4431.831138
4442.221833
4446.844681
4428.151616
4423.863171
4421.735016
4475.852419
4356.318869
4442.812454
4461.227816
4404.851958
4426.901223
4424.956036
4431.992409
4428.235057
4331.714155
4474.418524
4374.064533
4419.394808
4432.522771
4420.556050
4443.541595
4451.325139
4427.840724
4447.942103
4447.144462
4388.021349
4441.435274
4457.749511
4369.394348
4448.187037
4424.862967
4427.476432
4406.779274
4424.626908
4411.623754
4442.426543
4443.561070
4404.001198
4477.528885
4435.960366
4423.182346
4453.997635
4421.096828
4419.079763
4428.651270
4442.608192
4462.076160
4424.971723
4432.462543
4449.965452
4446.842634
4447.741504
4433.486289
4442.884167
4408.486105
4403.814964
4418.309097
4413.439727
4424.986851
4473.061301
4373.356197
4424.359861
4443.620251
4430.858982
4430.373752
4441.371392
4448.284714
4440.210271
4435.464783
4449.532352
4425.534828
4409.013002
4432.503364
4405.890760
4444.698324
4421.570828
4418.144819
4433.503617
4410.240875
4445.153450
4449.805783
4414.328315
4430.218631
4408.876395
4450.312681
4411.221715
4453.169323
4433.221972
4402.340256
4412.316077
4445.211798
4490.616546
4408.517901
4417.297825
4415.830094
4429.733145
4419.171720
4424.374845
4402.087269
4435.856965
4424.843467
4453.158452
4410.294902
4447.018135
4424.888743
4439.773427
4424.053221
4566.466184
4397.311518
4405.843709
4452.254620
4389.233514
4448.407439
4430.763879
4431.411318
4431.688250
4412.945504
4438.362836
4397.514017
4433.144842
4400.986939
4452.459830
4447.174011
4405.315576
4392.028013
4455.179234
4421.036122
4435.899836
4418.082521
4445.952007
4442.486008
4405.300242
4427.709041
4425.029439
4433.842538
4429.275080
4424.479383
4475.301644
4434.298691
4470.433989
4426.348043
4443.604733
4446.729957
4442.018956
4434.637581
4425.902834
4438.899516
4414.247500
4459.594725
4422.551936
4450.422263
4431.552408
4438.581149
4443.473029
4467.395059
4434.833826
4430.965604
4431.232369
4421.935221
4424.431071
4413.370407
4391.856145
4445.958305
4435.866616
4447.479028
4424.708807
4386.050127
4387.526233
4421.367424
4507.528324
4410.615591
4431.898861
4454.676946
4430.194803
4449.187700
4456.276171
4403.643649
4447.510406
4412.988494
4450.701662
4433.020984
4456.518900
4415.793654
4445.736008
4431.848381
4452.798675
4452.266648
4397.834782
4417.879264
4432.845674
4433.370290
4431.204279
4421.695259
4453.556471
4434.702035
4411.754994
4441.959960
4407.124748
4446.549566
4473.582646
4369.813976
4421.492054
4408.629607
4434.625463
4412.581481
4480.854362
4409.837054
4459.091226
4427.069352
4408.868272
4453.416533
4419.113002
4436.733553
4415.139333
4412.220995
4411.373021
4412.630184
4444.232062
4428.671164
4440.740377
4438.410622
4426.011013
4424.439174
4431.372176
4432.708471
4416.863639
4435.547235
4419.926908
4410.743159
4441.477378
4406.473790
4473.384186
4412.531442
4441.781742
4431.984654
4415.998770
4430.821298
4456.297332
4386.164702
4362.602736
4462.008907
4421.555031
4444.269194
4435.337562
4415.010668
4445.671145
4425.632492
4431.333216
4432.931919
4429.346185
4449.433669
4413.935805
4422.678338
4425.511908
4435.528505
4436.759988
4426.998714
4441.058654
4413.524679
4453.931617
4433.501204
4455.375749
4417.741401
4456.653568
4365.208321
4473.481076
4424.358411
4423.975061
4415.693172
4439.447402
4409.574608
4459.604740
4392.756405
4418.869531
4425.934658
4385.146795
4435.603053
4454.662057
4455.066922
4411.617447
4417.203467
4423.969988
4429.200194
4426.292933
4454.719800
4417.409793
4425.834714
4425.417721
4432.701962
4424.527841
4423.485236
4425.724448
4444.653426
4413.240091
4429.854995
4384.891288
4438.677600
4432.498643
4451.318543
4436.656075
4417.150450
4434.823842
4492.317331
4458.142217
4433.500870
4459.397545
4463.656260
4364.835438
4443.983590
4424.283101
4419.066133
4415.377509
4454.057035
4449.058783
4436.104044
4419.228365
4408.800582
4431.699435
4435.126359
4443.725095
4407.460107
4425.733802
4439.904726
4419.298498
4451.681535
4454.184489
4455.418758
4477.090826
4326.413936
4437.246874
4451.240886
4426.887783
4421.496495
4425.915280
4360.074809
4441.297767
4467.047359
4408.415015
4462.042158
4450.460801
4425.819164
4458.371347
4452.725250
4439.336242
4435.443037
4386.900278
4441.925824
4428.362943
4450.008392
4422.211220
4418.760698
4409.758976
4442.805270
4444.003376
4421.863497
4406.161714
4398.060318
4435.306216
4407.551761
4442.400739
4498.432675
4426.831214
4419.905282
4416.320558
4429.474556
4449.685598
4437.731275
4455.407614
4408.384028
4423.848327
4427.829725
4408.627070
4460.997768
4446.680775
4423.470974
4426.801234
4412.969084
4438.986339
4455.234019
4396.991566
4442.175956
4421.119425
4439.271154
4434.850738
4415.742185
4411.032300
4452.003912
4450.832506
4416.895356
4444.496103
4446.253569
4387.496528
4361.566228
4434.606545
4453.982365
4539.558451
4464.409729
4446.679994
4436.601708
4369.520978
4374.527824
4476.426061
4463.398483
4445.717707
4485.820393
4401.259783
4431.804256
4424.607084
4443.201902
4409.194708
4395.264119
4455.533620
4439.077013
4422.814341
4432.224937
4425.216633
4428.394129
4444.736661
4419.318890
4409.104046
4450.948210
4429.653735
4480.295356
4439.831815
4442.252100
4393.784221
4431.301883
4416.838174
4417.604736
4432.394864
4429.085562
4435.510607
4388.432981
4464.778000
4404.800821
4402.076619
4444.721399
4405.705813
4418.410522
4446.574886
4432.358971
4449.978151
4435.002081
4441.500309
4412.667458
4421.517439
4424.665869
4442.830250
4435.280375
4412.411272
4417.782130
4429.748227
4404.082379
4421.388549
4376.246846
4480.251837
4437.694842
4427.490810
4436.314767
4406.365294
4434.042686
4446.612456
4436.473531
4401.052270
4448.558486
4439.427949
4395.320918
4522.091614
4413.672334
4429.740382
4436.166712
4450.231376
4427.861370
4434.981695
4415.999019
4416.508941
4444.935413
4438.109098
4428.795759
4419.987601
4425.420033
4442.141889
4437.686290
4440.327593
4443.069000
4403.348612
4414.704545
4428.066361
4475.759446
4384.925876
4543.966273
4430.326629
4437.441532
4427.197112
4457.881757
4444.743082
4443.651756
4481.157561
4454.258574
4418.349970
4456.507815
4485.915442
4401.098279
4453.730891
4421.663104
4438.362240
4442.654830
4459.965870
4417.647809
4419.963928
4425.308148
4440.544183
4434.474569
4406.462004
4416.416127
4444.051468
4418.538182
4372.455238
4433.297986
4488.463410
4379.176979
4424.839472
4430.619554
4423.781278
4428.579260
4423.437846
4423.429980
4451.124026
4437.858690
4460.771716
4462.014712
4411.095188
4338.455142
4440.410464
4443.123526
4467.236637
4423.034188
4419.214541
4412.429025
4433.567578
4406.686339
4442.238739
4436.807137
4434.122274
4426.597777
4445.148252
4432.383327
4396.167783
4447.555528
4457.466036
4426.092261
4452.623470
4402.656608
4388.829741
4475.082531
4427.668504
4458.546921
4413.496996
4442.646560
4452.593786
4431.054184
4437.629470
4401.708081
4422.905916
4368.944651
4355.601153
4447.926967
4428.720177
4406.493847
4453.526971
4433.155049
4467.033294
4429.822731
4416.251433
4425.176320
4431.665395
4429.086069
4400.631593
4440.538534
4422.552162
4406.448333
4453.381216
4428.524614
4455.701809
4444.067832
4398.188212
4424.449318
4425.175559
4430.611317
4410.998775
4362.933954
4453.929947
4451.460141
4429.973531
4452.741122
4432.941892
4430.913709
4427.672554
4438.855535
4454.675310
4457.189904
4435.859408
4437.911800
4413.940483
4413.936094
4443.177899
4421.681796
4421.815773
4429.262453
4428.926048
4429.286177
4429.588300
4429.683693
4429.994291
4430.107666
4430.564439
4430.793282
4431.246663
4431.247150
4431.224541
4430.881483
4430.002071
4424.348556
4428.536397
4428.580739
4429.290062
4429.749400
4430.057114
4430.397610
4430.389450
4430.375647
4429.873167
4429.817003
4429.700571
4430.175802
4430.734195
4430.299834
4426.190361
4428.309966
4428.264558
4428.482963
4429.064172
4428.771226
4429.449835
4429.311791
4430.164985
4430.655545
4431.334775
4431.215294
4430.800750
4430.302574
4429.155238
4427.031896
4428.398485
4428.746298
4428.864826
4429.585786
4429.628268
4430.123906
4429.821024
4430.028215
4428.895685
4428.967429
4428.354316
4428.959891
4428.875629
4430.031193
4427.915848
4428.439442
4428.642366
4428.366304
4428.873108
4428.369885
4429.118973
4428.711267
4429.799857
4429.842476
4431.190453
4430.057986
4430.859377
4427.869233
4428.221727
4428.080439
4428.558091
4429.085219
4428.539436
4429.755092
4429.094243
4430.091043
4429.253070
4429.760261
4428.382911
4428.379711
4427.813006
4428.387119
4427.557317
4430.430036
4428.136793
4428.626135
4428.740353
4428.412765
4428.653164
4428.285206
4428.714528
4428.527468
4429.310850
4429.626535
4430.660735
4430.070328
4429.749260
4428.204982
4428.383972
4428.238876
4428.922478
4428.755478
4428.854377
4429.271799
4429.237050
4429.578725
4429.225874
4429.295518
4428.207140
4428.239666
4427.280948
4428.909068
4427.891479
4427.992964
4428.044069
4428.732133
4428.658563
4428.311414
4428.558252
4428.069988
4428.520100
4428.230122
4429.105110
4429.417055
4430.480984
4430.544130
4430.201117
4428.562492
4431.162144
4428.303375
4428.851162
4428.735964
4428.817789
4429.032514
4429.170712
4429.225371
4429.159232
4428.810686
4428.304572
4427.867395
4427.518957
4429.351776
4429.248254
4429.328125
4427.892549
4428.795306
4428.413621
4428.301329
4428.260755
4428.005419
4428.085305
4428.028425
4428.750668
4429.170746
4430.287268
4430.575034
4430.062769
4430.192655
4430.293353
4427.949726
4428.864525
4428.499677
4428.667867
4428.872588
4428.814664
4429.024066
4428.772363
4428.620949
4427.923856
4427.486841
4427.372312
4428.627531
4429.742556
4430.507361
4427.928043
4428.691264
4428.276750
4428.343768
4427.809425
4428.039167
4427.575962
4428.014022
4428.038580
4429.106501
4429.474810
4429.979983
4429.585399
4428.998678
4430.736487
4417.441955
4399.710191
4421.405526
4434.187680
4408.265010
4445.899579
4431.614642
4438.038359
4398.100469
4460.124708
4408.061408
4401.316716
4413.200653
4442.200174
4430.633815
4419.045800
4427.876839
4428.727521
4428.394955
4428.384587
4428.702792
4428.554756
4428.696891
4428.499308
4428.230173
4427.146208
4427.018129
4426.423487
4427.184434
4427.647883
4429.431046
4432.358959
4406.390295
4430.099296
4437.542418
4412.384822
4440.453722
4435.943191
4332.046095
4426.936411
4386.626509
4403.244219
4458.651623
4406.216807
4464.334342
4395.057090
4403.066362
4427.433195
4428.395400
4428.290914
4427.843854
4427.980144
4427.162575
4427.872703
4426.847165
4427.973574
4428.107887
4429.028350
4428.580678
4428.630116
4427.012943
4428.225714
4433.937050
4445.958989
4411.453301
4439.238108
4404.146249
4441.370531
4419.698152
4395.662991
4428.740453
4457.338483
4420.643441
4439.403234
4404.763863
4420.984359
4415.370738
4448.131745
4427.630815
4428.353491
4428.495742
4427.838292
4428.613492
4428.069796
4428.371661
4428.035579
4427.888784
4426.245501
4426.676002
4425.107738
4426.373045
4424.404036
4427.204414
4428.097256
4407.158252
4419.092805
4389.605749
4412.527055
4444.261122
4436.513174
4449.480448
4427.516767
4401.054145
4427.938900
4428.658968
4393.895151
4387.025955
4430.593970
4443.567222
4427.162646
4428.373663
4428.013328
4427.624147
4427.696015
4426.889701
4427.481025
4426.624956
4427.340237
4427.972706
4428.083786
4427.692164
4427.456148
4424.497300
4423.866879
4431.515341
4431.117640
4433.103945
4461.795003
4455.326562
4432.274293
4440.889482
4424.829849
4407.499350
4445.164271
4450.650536
4456.409930
4403.522072
4421.249893
4432.342999
4415.986969
4427.210555
4428.521295
4427.833096
4428.197699
4427.803855
4428.198867
4427.938105
4427.893417
4427.616948
4425.750853
4426.088789
4424.856137
4424.913010
4424.551592
4423.523525
4423.869867
4389.812379
4449.302962
4435.133703
4488.235261
4383.444043
4440.041447
4426.422832
4448.165778
4402.659316
4375.342260
4451.363294
4411.066126
4442.256158
4443.562790
4421.924965
4427.261659
4428.191993
4428.077592
4427.287917
4427.620765
4427.033027
4427.025559
4426.959363
4426.643401
4428.193214
4427.269975
4427.847667
4426.330541
4425.341172
4425.746237
4439.591006
4439.037743
4443.285979
4384.240347
4349.110330
4436.183830
4425.676504
4424.168693
4448.132771
4424.130405
4411.080658
4473.556542
4455.465789
4411.887949
4476.547115
4390.105702
4427.073775
4428.349637
4427.841435
4427.971675
4427.993947
4427.767646
4428.191689
4427.478711
4427.597038
4425.562919
4426.114856
4424.729763
4425.641662
4425.750477
4424.831939
4439.514810
4420.091681
4448.789047
4397.492022
4409.712096
4473.504166
4416.645861
4420.838227
4432.137604
4400.648110
4459.044845
4382.642008
4427.147973
4448.489846
4438.192804
4445.576800
4427.068089
4428.166569
4427.914229
4427.380668
4427.541591
4426.991859
4427.270724
4426.309111
4427.248297
4427.221667
4428.083111
4427.588488
4427.568905
4426.302162
4427.117291
4418.923495
4432.365609
4386.405844
4431.295047
4444.061163
4430.821946
4427.326843
4420.681896
4405.152998
4460.603863
4403.126156
4373.808047
4441.738469
4475.285232
4428.221581
4394.774077
4427.069142
4428.145234
4428.123454
4427.462917
4428.338663
4427.433877
4427.896609
4427.672032
4426.864568
4425.854411
4425.945646
4424.634354
4426.535415
4425.422029
4428.316872
4439.046808
4441.474885
4440.151332
4450.353068
4372.608904
4415.928285
4437.899619
4428.804655
4399.431909
4437.851573
4392.039037
4424.480201
4352.457152
4462.787252
4467.062648
4429.511670
4427.110285
4428.264535
4427.669902
4427.783450
4427.137664
4426.948842
4427.101613
4425.834486
4426.843193
4427.222733
4427.424186
4427.995247
4426.277860
4425.344617
4424.894574
4438.948943
4435.732810
4425.216549
4433.652849
4440.280838
4425.965444
4456.561324
4486.463180
4392.600405
4403.836676
4448.276034
4454.260208
4445.804156
4430.089871
4403.302609
4380.671081
4427.301810
4428.147945
4428.055056
4427.400986
4427.901714
4427.341218
4427.386588
4427.444757
4427.096556
4425.398465
4426.552541
4424.098936
4425.915049
4424.782231
4423.379699
4450.249689
4431.261692
4442.966283
4432.740916
4408.890685
4422.227477
4440.168726
4400.253869
4476.010517
4411.180732
4434.118127
4387.486766
4418.574833
4405.438917
4413.088265
4457.192870
4427.218532
4428.009354
4428.140687
4426.900549
4427.797903
4426.117517
4427.534970
4425.972108
4426.865802
4427.794531
4427.214749
4427.718066
4426.059186
4425.017396
4426.187801
4426.059548
4418.110950
4452.057215
4402.367091
4391.403540
4454.497442
4422.171827
4431.903390
4390.412069
4435.561803
4443.734845
4454.946754
4444.604185
4409.614770
4499.665610
4461.420838
4427.468668
4428.459467
4427.555129
4428.202045
4427.254834
4428.115020
4427.648805
4427.576106
4427.834962
4424.916542
4426.333993
4424.067657
4426.077802
4424.282534
4426.661736
4427.259638
4431.930117
4420.749186
4443.730857
4432.329471
4420.077316
4467.860811
4457.387641
4386.422928
4436.983887
4447.628891
4442.697300
4414.214265
4415.629507
4423.605367
4450.056795
4427.206112
4428.205496
4428.083694
4427.205005
4427.854178
4427.073975
4427.110763
4426.758722
4426.142321
4427.332328
4427.105414
4426.897711
4426.176494
4425.786411
4424.443801
4432.432726
4433.224823
4423.594154
4428.914971
4451.693789
4448.120480
4474.932268
4498.460920
4447.680343
4438.166837
4392.461844
4409.658582
4435.347547
4433.962390
4413.924933
4412.972384
4427.587997
4428.222400
4428.187852
4427.693720
4428.380221
4427.414393
4428.306433
4427.149076
4427.708027
4425.885224
4425.618462
4425.402430
4424.997741
4425.623854
4425.732391
4434.587081
4438.379412
4442.875443
4417.706169
4370.431644
4435.120712
4638.056880
4456.156512
4430.003205
4446.026808
4451.287118
4426.175046
4454.977446
4399.575507
4456.849200
4426.153849
4427.632127
4428.510054
4427.866917
4428.361863
4427.193715
4428.111208
4427.099867
4427.372467
4426.881472
4427.357002
4427.941883
4427.080765
4426.585868
4425.308969
4426.464667
4413.723938
4430.915374
4425.363001
4483.143736
4399.052745
4427.017790
4469.390627
4460.837363
4488.523286
4451.080926
4465.094200
4418.120907
4429.637823
4422.830858
4382.388941
4422.665729
4427.619759
4428.314499
4428.286339
4427.347994
4428.463338
4427.159439
4428.017777
4427.208372
4426.898573
4425.436995
4425.704092
4423.484585
4426.316140
4424.557473
4423.477360
4428.344098
4407.332973
4421.655503
4444.245026
4374.094764
4404.959366
4462.478242
4432.064860
4473.920190
4432.628442
4401.127853
4430.452539
4464.338872
4456.048260
4471.009499
4429.501370
4427.794604
4427.921521
4428.660020
4426.902802
4427.999813
4425.788339
4427.539392
4424.712093
4426.072299
4426.198266
4426.676348
4427.759799
4424.872819
4423.223097
4427.872307
4432.956418
4395.852815
4454.226350
4449.888303
4391.373653
4437.670260
4437.858863
4424.212408
4434.552975
4462.549133
4435.015458
4435.808804
4407.648756
4431.815563
4378.960438
4420.273495
4428.000618
4428.455067
4427.900412
4427.841279
4427.145652
4427.565898
4427.443982
4427.565490
4427.932983
4426.600930
4427.448010
4423.863820
4426.440501
4422.635440
4422.377678
4426.384312
4455.349557
4418.172905
4408.187534
4400.200064
4451.249846
4641.279130
4457.747881
4463.279524
4473.819800
4437.999361
4398.618491
4403.471634
4435.621050
4351.900931
4423.556905
4428.019430
4428.038801
4428.570581
4426.866557
4428.633880
4427.055675
4428.371714
4427.127361
4428.079706
4427.674384
4428.437222
4426.459844
4424.186455
4424.205119
4422.510413
4431.880288
4448.005576
4453.152324
4437.112778
4456.420405
4425.086938
4444.537328
4463.052566
4363.820695
4443.482787
4448.538680
4408.240052
4443.571516
4410.128734
4517.394039
4425.095045
4427.942848
4428.083910
4428.823685
4427.661534
4428.768540
4427.259723
4428.575618
4426.928900
4428.504057
4425.102844
4424.991778
4423.778425
4425.129198
4422.424092
4424.814023
4428.812618
4423.248229
4444.517605
4436.865029
4451.574356
4489.544427
4392.281951
4467.719533
4459.788470
4436.541351
4451.625202
4446.612143
4431.929580
4423.503260
4346.868966
4432.481908
4428.398200
4428.899685
4428.006124
4428.689673
4427.412789
4428.146910
4426.767863
4426.909719
4426.014753
4425.667395
4426.035255
4423.574501
4424.418179
4422.936187
4424.577699
4431.278175
4418.480764
4433.081212
4416.831731
4440.157951
4412.912829
4538.106769
4483.852293
4444.223372
4430.889106
4434.641383
4454.358931
4438.826946
4387.948905
4387.285463
4411.400743