# vtk DataFile Version 2.0
mfree iwf
ASCII

DATASET UNSTRUCTURED_GRID
POINTS 11904 float
-0.000000 0.000445 0.000000
-0.000000 0.000450 0.000000
-0.000000 0.000455 0.000000
-0.000000 0.000460 0.000000
-0.000000 0.000465 0.000000
-0.000000 0.000470 0.000000
-0.000000 0.000475 0.000000
-0.000000 0.000480 0.000000
0.000000 0.000485 0.000000
0.000000 0.000490 0.000000
-0.000000 0.000496 0.000000
0.000002 0.000500 0.000000
0.001172 0.001042 0.000000
0.001180 0.001041 0.000000
0.001225 0.001024 0.000000
0.001229 0.001021 0.000000
0.001229 0.001021 0.000000
0.001236 0.001018 0.000000
0.001242 0.001014 0.000000
0.001238 0.001017 0.000000
0.001251 0.001010 0.000000
0.001275 0.000997 0.000000
0.001279 0.000992 0.000000
0.001282 0.000989 0.000000
0.001286 0.000985 0.000000
0.001289 0.000982 0.000000
0.001292 0.000978 0.000000
0.001295 0.000974 0.000000
0.001298 0.000970 0.000000
0.001302 0.000965 0.000000
0.001306 0.000961 0.000000
0.001325 0.000949 0.000000
0.000005 0.000445 0.000000
0.000005 0.000450 0.000000
0.000005 0.000455 0.000000
0.000005 0.000460 0.000000
0.000005 0.000465 0.000000
0.000005 0.000470 0.000000
0.000005 0.000475 0.000000
0.000005 0.000480 0.000000
0.000005 0.000485 0.000000
0.000006 0.000489 0.000000
0.000003 0.000496 0.000000
0.000006 0.000499 0.000000
0.001220 0.001025 0.000000
0.001223 0.001015 0.000000
0.001256 0.001005 0.000000
0.001262 0.001002 0.000000
0.001267 0.000999 0.000000
0.001270 0.000997 0.000000
0.001271 0.000995 0.000000
0.001274 0.000991 0.000000
0.001277 0.000988 0.000000
0.001281 0.000983 0.000000
0.001287 0.000977 0.000000
0.001290 0.000973 0.000000
0.001293 0.000967 0.000000
0.001300 0.000961 0.000000
0.001302 0.000957 0.000000
0.001307 0.000954 0.000000
0.001316 0.000950 0.000000
0.001318 0.000948 0.000000
0.001314 0.000952 0.000000
0.001322 0.000947 0.000000
0.000010 0.000445 0.000000
0.000010 0.000450 0.000000
0.000010 0.000455 0.000000
0.000010 0.000460 0.000000
0.000010 0.000465 0.000000
0.000010 0.000469 0.000000
0.000010 0.000475 0.000000
0.000011 0.000479 0.000000
0.000009 0.000486 0.000000
0.000012 0.000489 0.000000
0.000008 0.000497 0.000000
0.000011 0.000498 0.000000
0.001219 0.001021 0.000000
0.001226 0.001013 0.000000
0.001242 0.001009 0.000000
0.001249 0.001007 0.000000
0.001253 0.001005 0.000000
0.001258 0.001002 0.000000
0.001249 0.001000 0.000000
0.001256 0.000996 0.000000
0.001262 0.000994 0.000000
0.001267 0.000991 0.000000
0.001275 0.000984 0.000000
0.001280 0.000980 0.000000
0.001279 0.000973 0.000000
0.001284 0.000971 0.000000
0.001288 0.000969 0.000000
0.001297 0.000963 0.000000
0.001309 0.000952 0.000000
0.001310 0.000950 0.000000
0.001315 0.000944 0.000000
0.001316 0.000938 0.000000
0.000015 0.000445 0.000000
0.000016 0.000450 0.000000
0.000014 0.000456 0.000000
0.000017 0.000460 0.000000
0.000014 0.000469 0.000000
0.000015 0.000465 0.000000
0.000014 0.000476 0.000000
0.000017 0.000480 0.000000
0.000014 0.000484 0.000000
0.000016 0.000489 0.000000
0.000014 0.000495 0.000000
0.000016 0.000497 0.000000
0.000025 0.000500 0.000000
0.001230 0.001013 0.000000
0.001245 0.001007 0.000000
0.001239 0.001005 0.000000
0.001252 0.000999 0.000000
0.001262 0.001000 0.000000
0.001262 0.000991 0.000000
0.001270 0.000986 0.000000
0.001265 0.000984 0.000000
0.001272 0.000981 0.000000
0.001279 0.000967 0.000000
0.001283 0.000977 0.000000
0.001288 0.000963 0.000000
0.001293 0.000963 0.000000
0.001292 0.000958 0.000000
0.001297 0.000957 0.000000
0.001301 0.000951 0.000000
0.001305 0.000948 0.000000
0.001308 0.000944 0.000000
0.001314 0.000936 0.000000
0.000019 0.000445 0.000000
0.000021 0.000450 0.000000
0.000018 0.000455 0.000000
0.000022 0.000459 0.000000
0.000019 0.000469 0.000000
0.000024 0.000468 0.000000
0.000018 0.000474 0.000000
0.000022 0.000479 0.000000
0.000019 0.000486 0.000000
0.000021 0.000491 0.000000
0.000020 0.000497 0.000000
0.000022 0.000499 0.000000
0.000039 0.000500 0.000000
0.001225 0.001002 0.000000
0.001233 0.001007 0.000000
0.001240 0.001000 0.000000
0.001245 0.001003 0.000000
0.001255 0.000992 0.000000
0.001253 0.000988 0.000000
0.001266 0.000980 0.000000
0.001257 0.000986 0.000000
0.001269 0.000976 0.000000
0.001268 0.000967 0.000000
0.001273 0.000962 0.000000
0.001279 0.000961 0.000000
0.001287 0.000957 0.000000
0.001292 0.000948 0.000000
0.001298 0.000947 0.000000
0.001301 0.000945 0.000000
0.001308 0.000939 0.000000
0.001311 0.000940 0.000000
0.001311 0.000933 0.000000
0.000024 0.000445 0.000000
0.000026 0.000450 0.000000
0.000024 0.000455 0.000000
0.000026 0.000461 0.000000
0.000021 0.000465 0.000000
0.000025 0.000472 0.000000
0.000023 0.000476 0.000000
0.000027 0.000481 0.000000
0.000023 0.000485 0.000000
0.000026 0.000488 0.000000
0.000026 0.000493 0.000000
0.000027 0.000500 0.000000
0.001201 0.001034 0.000000
0.001232 0.001010 0.000000
0.001237 0.001009 0.000000
0.001250 0.000993 0.000000
0.001246 0.000996 0.000000
0.001262 0.000987 0.000000
0.001260 0.000981 0.000000
0.001250 0.000988 0.000000
0.001256 0.000977 0.000000
0.001275 0.000977 0.000000
0.001273 0.000970 0.000000
0.001274 0.000974 0.000000
0.001284 0.000966 0.000000
0.001284 0.000960 0.000000
0.001295 0.000951 0.000000
0.001291 0.000953 0.000000
0.001303 0.000941 0.000000
0.001296 0.000941 0.000000
0.001305 0.000936 0.000000
0.001307 0.000929 0.000000
0.000030 0.000445 0.000000
0.000031 0.000450 0.000000
0.000029 0.000455 0.000000
0.000031 0.000460 0.000000
0.000031 0.000464 0.000000
0.000028 0.000468 0.000000
0.000031 0.000472 0.000000
0.000030 0.000477 0.000000
0.000030 0.000486 0.000000
0.000031 0.000492 0.000000
0.000033 0.000497 0.000000
0.000030 0.000499 0.000000
0.000048 0.000500 0.000000
0.001222 0.001010 0.000000
0.001234 0.000997 0.000000
0.001241 0.000994 0.000000
0.001239 0.000996 0.000000
0.001245 0.000990 0.000000
0.001251 0.000980 0.000000
0.001263 0.000969 0.000000
0.001263 0.000977 0.000000
0.001267 0.000972 0.000000
0.001276 0.000966 0.000000
0.001277 0.000952 0.000000
0.001281 0.000957 0.000000
0.001283 0.000953 0.000000
0.001286 0.000943 0.000000
0.001287 0.000949 0.000000
0.001293 0.000939 0.000000
0.001299 0.000938 0.000000
0.001302 0.000932 0.000000
0.001304 0.000926 0.000000
0.000035 0.000445 0.000000
0.000035 0.000450 0.000000
0.000034 0.000456 0.000000
0.000038 0.000454 0.000000
0.000035 0.000467 0.000000
0.000036 0.000472 0.000000
0.000032 0.000479 0.000000
0.000041 0.000479 0.000000
0.000034 0.000483 0.000000
0.000034 0.000488 0.000000
0.000037 0.000491 0.000000
0.000036 0.000498 0.000000
0.001159 0.001043 0.000000
0.001196 0.001036 0.000000
0.001230 0.001002 0.000000
0.001234 0.000991 0.000000
0.001247 0.000983 0.000000
0.001238 0.000981 0.000000
0.001255 0.000981 0.000000
0.001252 0.000974 0.000000
0.001260 0.000973 0.000000
0.001251 0.000966 0.000000
0.001259 0.000958 0.000000
0.001273 0.000954 0.000000
0.001274 0.000957 0.000000
0.001278 0.000949 0.000000
0.001291 0.000943 0.000000
0.001281 0.000932 0.000000
0.001294 0.000931 0.000000
0.001296 0.000934 0.000000
0.001299 0.000929 0.000000
0.001300 0.000923 0.000000
0.000040 0.000445 0.000000
0.000041 0.000450 0.000000
0.000036 0.000461 0.000000
0.000040 0.000458 0.000000
0.000041 0.000463 0.000000
0.000039 0.000468 0.000000
0.000041 0.000472 0.000000
0.000037 0.000477 0.000000
0.000041 0.000488 0.000000
0.000042 0.000491 0.000000
0.000041 0.000497 0.000000
0.000044 0.000498 0.000000
0.001008 0.001002 0.000000
0.001219 0.001017 0.000000
0.001221 0.001006 0.000000
0.001229 0.000988 0.000000
0.001243 0.000987 0.000000
0.001246 0.000978 0.000000
0.001243 0.000982 0.000000
0.001257 0.000970 0.000000
0.001263 0.000963 0.000000
0.001268 0.000962 0.000000
0.001259 0.000965 0.000000
0.001262 0.000949 0.000000
0.001271 0.000947 0.000000
0.001277 0.000940 0.000000
0.001283 0.000947 0.000000
0.001281 0.000943 0.000000
0.001288 0.000937 0.000000
0.001289 0.000931 0.000000
0.001295 0.000926 0.000000
0.001296 0.000920 0.000000
0.000044 0.000445 0.000000
0.000047 0.000450 0.000000
0.000044 0.000455 0.000000
0.000046 0.000460 0.000000
0.000044 0.000467 0.000000
0.000046 0.000474 0.000000
0.000046 0.000478 0.000000
0.000039 0.000483 0.000000
0.000052 0.000485 0.000000
0.000045 0.000483 0.000000
0.000048 0.000492 0.000000
0.000050 0.000498 0.000000
0.001014 0.001006 0.000000
0.001216 0.001026 0.000000
0.001235 0.001001 0.000000
0.001238 0.000988 0.000000
0.001234 0.000986 0.000000
0.001246 0.000974 0.000000
0.001246 0.000970 0.000000
0.001253 0.000969 0.000000
0.001253 0.000959 0.000000
0.001264 0.000956 0.000000
0.001268 0.000959 0.000000
0.001275 0.000945 0.000000
0.001267 0.000947 0.000000
0.001273 0.000940 0.000000
0.001283 0.000938 0.000000
0.001285 0.000934 0.000000
0.001285 0.000927 0.000000
0.001289 0.000926 0.000000
0.001292 0.000923 0.000000
0.001292 0.000916 0.000000
0.000049 0.000445 0.000000
0.000053 0.000450 0.000000
0.000049 0.000454 0.000000
0.000052 0.000455 0.000000
0.000048 0.000465 0.000000
0.000050 0.000471 0.000000
0.000052 0.000467 0.000000
0.000051 0.000478 0.000000
0.000047 0.000488 0.000000
0.000052 0.000491 0.000000
0.000057 0.000492 0.000000
0.000053 0.000498 0.000000
0.001102 0.001040 0.000000
0.001206 0.001023 0.000000
0.001217 0.001013 0.000000
0.001229 0.000992 0.000000
0.001235 0.000980 0.000000
0.001241 0.000976 0.000000
0.001237 0.000973 0.000000
0.001242 0.000970 0.000000
0.001247 0.000960 0.000000
0.001256 0.000963 0.000000
0.001253 0.000956 0.000000
0.001263 0.000954 0.000000
0.001262 0.000942 0.000000
0.001269 0.000952 0.000000
0.001273 0.000936 0.000000
0.001275 0.000929 0.000000
0.001277 0.000934 0.000000
0.001282 0.000924 0.000000
0.001288 0.000919 0.000000
0.001289 0.000913 0.000000
0.000053 0.000445 0.000000
0.000058 0.000450 0.000000
0.000055 0.000459 0.000000
0.000051 0.000461 0.000000
0.000060 0.000465 0.000000
0.000053 0.000473 0.000000
0.000057 0.000476 0.000000
0.000057 0.000480 0.000000
0.000052 0.000483 0.000000
0.000057 0.000486 0.000000
0.000056 0.000497 0.000000
0.000059 0.000496 0.000000
0.001125 0.001041 0.000000
0.001215 0.001027 0.000000
[...]
POINT_DATA 11904
SCALARS density float 1
LOOKUP_TABLE default
4428.417769
4430.922587
4425.392598
4427.385640
4430.882822
4426.590769
4434.718763
4427.809631
4430.741443
4419.796429
4429.798794
4405.973686
4433.228087
4420.236750
4415.829107
4434.515634
4432.697953
4432.007523
4447.431154
4442.891876
4432.653157
4423.314800
4402.911116
4435.215634
4425.207853
4423.672327
4452.797017
4420.305347
4420.820652
4447.456151
4426.167751
4408.526706
4431.092454
4430.632819
4429.591283
4428.056750
4431.525623
4420.888523
4429.112126
4422.447419
4423.427549
4433.522764
4448.943084
4409.218442
4412.273336
4428.277674
4418.357856
4410.072783
4426.675109
4429.807597
4440.632608
4461.360101
4444.079951
4431.881829
4411.741252
4390.709080
4437.296120
4397.297474
4433.147000
4455.469358
4420.797595
4440.760441
4404.341449
4410.600253
4421.086462
4425.007386
4436.274432
4419.105125
4432.331047
4422.002073
4452.178073
4395.532231
4464.064986
4379.355132
4447.943927
4401.395770
4462.812389
4433.627150
4426.608118
4397.741175
4419.333292
4410.832491
4470.516458
4445.025948
4440.319762
4384.821244
4411.088422
4429.930474
4394.361939
4452.444863
4449.639967
4396.703388
4422.369584
4434.818793
4442.109467
4406.364880
4424.611770
4438.959411
4442.380750
4418.217350
4420.266249
4447.359342
4458.917434
4384.372079
4470.696423
4392.816315
4508.139286
4405.068356
4434.583160
4416.655768
4413.514429
4472.591092
4444.010546
4439.708857
4421.285351
4393.045580
4446.290386
4432.787905
4434.493939
4443.181344
4397.732210
4470.088743
4422.715716
4477.179652
4434.921444
4367.138022
4490.889569
4444.763628
4437.409206
4424.111227
4436.120356
4440.748813
4409.232471
4441.509617
4425.577166
4447.313469
4476.090346
4366.597449
4464.724099
4433.400270
4416.150448
4442.430250
4462.776876
4390.451636
4460.641570
4406.907401
4458.162740
4430.152118
4426.326841
4399.789532
4416.898485
4423.032166
4420.505078
4433.699442
4414.847825
4464.101660
4455.800646
4418.321719
4389.366289
4418.860784
4432.837746
4435.292217
4440.401497
4409.687958
4436.422529
4414.924285
4461.135031
4371.248959
4424.687854
4475.331214
4424.335577
4424.950049
4435.618663
4431.674785
4371.992763
4438.142760
4388.220073
4449.595729
4390.453962
4432.557599
4483.966386
4451.237816
4425.950609
4451.195506
4430.680257
4464.007687
4390.094436
4419.889195
4399.599794
4416.793494
4468.502449
4405.792254
4422.622735
4427.942788
4417.906124
4443.710883
4437.207851
4449.844188
4397.756604
4447.638735
4443.572576
4403.280326
4453.072447
4420.547414
4424.119991
4446.920996
4459.191121
4461.401165
4430.584949
4435.877255
4406.938381
4423.322705
4441.129849
4457.504630
4444.527122
4455.639524
4432.290344
4373.191265
4384.232119
4465.669499
4437.320731
4409.539593
4431.860077
4447.041645
4427.533729
4433.438440
4439.379740
4432.398622
4425.785738
4429.716850
4448.402714
4424.307806
4407.956756
4429.095652
4427.825730
4443.418256
4417.855333
4431.714439
4393.824457
4402.404555
4432.435098
4453.596968
4446.832601
4396.236130
4411.035917
4442.446136
4403.082907
4453.072681
4401.166558
4454.904521
4435.785069
4421.662853
4446.268807
4413.239938
4416.634365
4410.969735
4429.925310
4419.002191
4415.622379
4436.294012
4430.948065
4441.381943
4437.403412
4423.307605
4441.763698
4430.074034
4432.943540
4427.834757
4436.972115
4455.137194
4405.558251
4446.832541
4404.522631
4463.589808
4442.642392
4417.890841
4417.480503
4440.482728
4458.628916
4412.110821
4410.150639
4449.648338
4432.871321
4429.705200
4435.979551
4397.221109
4448.723095
4430.863038
4431.787712
4420.169642
4431.623053
4430.919594
4408.147039
4431.584847
4441.727100
4431.072931
4450.303964
4425.621078
4464.813713
4428.562923
4428.826322
4442.601228
4404.128425
4437.766535
4435.146415
4426.395170
4455.577726
4450.443126
4432.159348
4445.750649
4433.409281
4412.136309
4455.334528
4445.337824
4431.283507
4458.828347
4427.104374
4426.940928
4421.360422
4445.353059
4420.646174
4420.317747
4445.365342
4405.187745
4442.454157
4450.217529
4403.180801
4381.431074
4396.835294
4429.486913
4516.621104
4408.126878
4436.408221
4424.752249
4388.526127
4459.554691
4436.792530
4373.801998
4462.121112
4434.923988
4425.525472
4418.698693
4455.775838
4438.456057
4377.314977
4400.807290
4438.616754
4454.460987
4395.986124
4426.974461
4412.214883
4425.546257
4446.626645
4436.356160
4447.331417
4420.094839
4441.881907
4456.090265
4405.366141
4448.047399
4468.193365
4360.249213
4416.357493
4412.938827
4435.013009
4429.233794
4418.998234
4402.132753
4469.822061
4416.221256
4396.439657
4408.208034
4431.905997
4402.796578
4439.886547
4440.863767
4455.126626
4425.348022
4455.271135
4426.441055
4421.143653
4434.763719
4438.333279
4422.596711
4423.137294
4409.710306
4422.026671
4385.539934
4416.216472
4433.284204
4415.290706
4402.754020
4435.625404
4400.469800
4440.923578
4434.553072
4424.859984
4429.146793
4414.212348
4375.737384
4394.039787
4419.610866
4443.951728
4468.185883
4444.745400
4448.495497
4463.811549
4400.289601
4424.213091
4446.723061
4424.655381
4411.758476
4406.793882
4417.796585
4438.058201
4434.006616
4439.976786
4425.300144
4424.314806
4439.776362
4436.559446
4425.714295
4414.993377
4431.477017
4467.900049
4429.819976
4412.214703
4441.163894
4414.522370
4431.429169
4421.741318
4385.591498
4426.807214
4391.904972
4454.032047
4392.301311
4395.811391
4462.542061
4462.326958
4443.060396
4416.947769
4452.516209
4431.772331
4429.766301
4449.690999
4442.098237
4420.138562
4425.739888
4422.143902
4435.776497
4429.551995
4446.068134
4423.040454
4434.101638
4418.057045
4436.233019
4385.686118
4434.846908
4439.086451
4452.179171
4434.660055
4445.605496
4424.210245
4464.434829
4446.768411
4452.393320
4453.077205
4454.851121
4402.638916
4415.094825
4417.650117
4428.139894
4459.906024
4406.682546
4435.993694
4407.969388
4428.566662
4391.771722
4447.431512
4435.636142
4438.069028
4435.550115
4417.400298
4419.733331
4423.742524
4429.375093
4451.458985
4435.358697
4441.810924
4400.995091
4394.527815
4447.276695
4428.014679
4427.522015
4433.361627
4449.493469
4445.192543
4419.192150
4402.179353
4418.179759
4385.168860
4403.986924
4421.657538
4427.145756
4422.176771
4441.782586
4430.689904
4440.052880
4436.007683
4436.380885
4428.456975
4421.847613
4432.327509
4428.969719
4439.941448
4450.773042
4436.012891
4402.025520
4418.902382
4445.701885
4439.442306
4392.582635
4408.198224
4431.453947
4421.452541
4422.335007
4430.584097
4432.259261
4472.007252
4445.477111
4407.262382
4439.741750
4420.126161
4440.562647
4411.889240
4426.543688
4426.329705
4392.215993
4407.105513
4435.092565
4400.108644
4437.967826
4420.523155
4448.398616
4445.394524
4432.889249
4419.399999
4422.460036
4453.799747
4415.940140
4422.818666
4445.155867
4387.106683
4483.981116
4439.921172
4457.780083
4432.365132
4430.791763
4443.036041
4434.623141
4469.644111
4407.357574
4483.432969
4494.907633
4443.710069
4437.543371
4411.948818
4433.790819
4415.704512
4433.488845
4424.373465
4443.162120
4448.088783
4437.467596
4425.286647
4432.399783
4408.247968
4415.142609
4439.940721
4418.531203
4456.217416
4444.632381
4451.197134
4452.351164
4443.542178
4429.124287
4390.398609
4424.884813
4414.512538
4429.007394
4430.146780
4443.794722
4419.103424
4444.273549
4427.299189
4451.553253
4444.194899
4452.771774
4472.578384
4389.348305
4443.050697
4424.862411
4434.688263
4431.954544
4398.473541
4418.835020
4421.169821
4430.990833
4451.736278
4432.499575
4451.967041
4426.559386
4403.769164
4407.150212
4443.566436
4437.384599
4433.972266
4425.787106
4428.484270
4433.090473
4417.728043
4440.316549
4443.222027
4465.332175
4422.868300
4440.481746
4416.265302
4460.931670
4484.235074
4438.417054
4454.665697
4432.734943
4427.905595
4435.908272
4430.060806
4442.906602
4418.285647
4456.455012
4439.340872
4438.585046
4434.715704
4428.962221
4418.951221
4427.088304
4420.026833
4433.941182
4396.174558
4399.213879
4476.242660
4474.930665
4396.670552
4499.240527
4427.399348
4417.143423
4427.984441
4471.408039
4438.883735
4419.013063
4357.549607
4438.788851
4381.382658
4460.953030
4484.560441
4423.956533
4476.900100
4458.471410
4408.563630
4415.396374
4435.641884
4422.378352
4405.958693
4435.975120
4436.342890
4426.066142
4452.437041
4429.304042
4429.226177
4414.556613
4428.818079
4428.245416
4447.439963
4367.495609
4436.407668
4429.830400
4432.735474
4421.403951
4431.520101
4436.919072
4446.149377
4428.681970
4443.914678
4435.797157
4388.894149
4344.000444
4453.504749
4407.371471
4450.667305
4407.567612
4420.165973
4448.443926
4416.782930
4446.096157
4432.443867
4435.734855
4415.480415
4444.748689
4407.652633
4437.737582
4445.951670
4433.874969
4432.915931
4440.234300
4446.107518
4397.426894
4399.287914
4454.098471
4427.824560
4467.959815
4388.141192
4449.137202
4432.938039
4435.631974
4425.700563
4457.109019
4441.276899
4361.813153
4368.653799
4445.521603
4376.804049
4394.939651
4398.099189
4421.579890
4447.281568
4431.659126
4422.918588
4422.664827
4433.870118
4428.435238
4442.005416
4435.724420
4441.489145
4426.219336
4425.761287
4393.398940
4429.294476
4448.203414
4446.323801
4431.928200
4453.922227
4426.591081
4436.825973
4399.553810
4357.915197
4394.086408
4411.698837
4420.873438
4389.892925
4458.675407
4437.157960
4469.295164
4450.198466
4446.178989
4405.608902
4441.997029
4413.763292
4452.933133
4444.466062
4420.481845
4428.219101
4430.372334
4430.580759
4430.710432
4430.526026
4429.988990
4429.595232
4429.121159
4429.324511
4430.064750
4431.189763
4431.710753
4431.500960
4431.013881
4430.417768
4428.875033
4429.900061
4428.737935
4428.620705
4429.333045
4430.483137
4431.957620
4433.167463
4433.407958
4431.815514
4429.527783
4428.195066
4428.636150
4430.035574
4430.801180
4429.220855
4430.051356
4431.264152
4431.681404
4431.270771
4429.889033
4428.513374
4426.981226
4426.881295
4428.565853
4431.586993
4433.046453
4432.091533
4430.545478
4428.945113
4429.688424
4429.692910
4428.440703
4428.058150
4428.637832
4430.111113
4431.687483
4433.571706
4433.624497
4432.102144
4428.660413
4426.947694
4426.736888
4428.521783
4429.186202
4429.744488
4429.811094
4431.343967
4431.734317
4431.261849
4429.803766
4428.254698
4426.276257
4426.323176
4427.666746
4431.206312
4432.712550
4432.500220
4429.421190
4430.495191
4429.717477
4429.483314
4428.609079
4427.395196
4428.890283
4429.371788
4431.911796
4432.802446
4434.025703
4431.002207
4429.277831
4425.527707
4427.796167
4427.867643
4429.018638
4429.773800
4429.680423
4431.376797
4431.602980
4431.191813
4429.571780
4428.053289
4426.005703
4425.996973
4427.515154
4430.490278
4432.832055
4431.535802
4428.254040
4428.706475
4429.620952
4429.539291
4428.394284
4427.555256
4428.319149
4429.681668
4431.193174
4433.122296
4433.253709
4431.391911
4428.546572
4425.663534
4426.739916
4427.987710
4429.100693
4429.221408
4429.916615
4430.891072
4431.632627
4431.132171
4429.277824
4428.040875
4425.647296
4426.059704
4427.005771
4430.575209
4432.732363
4432.172323
4430.131647
4429.087155
4429.554853
4429.456121
4428.310242
4427.420608
4428.174693
4429.518947
4431.018805
4432.866791
4433.055850
4431.187199
4428.587655
4425.530512
4427.457343
4428.551614
4430.945756
4429.348764
4429.734836
4430.953928
4431.572835
4430.778451
4429.418020
4427.376984
4425.970103
4425.679746
4427.020637
4430.018025
4433.005322
4431.144261
4428.935741
4425.998442
4429.418910
4429.510806
4428.068476
4427.256680
4428.022791
4429.169384
4431.025157
4432.512199
4433.028746
4431.033775
4428.452186
4425.256772
4426.682987
4428.023157
4428.331861
4429.149614
4429.568906
4430.838180
4431.447014
4430.593539
4429.218521
4427.355130
4425.682040
4425.956936
4426.548315
4430.109260
4433.101659
4432.134972
4429.023239
4430.917189
4447.220842
4443.588793
4411.851862
4458.526887
4433.825790
4449.984175
4427.849367
4416.885687
4394.298668
4460.950915
4460.240017
4419.208945
4444.586716
4470.836034
4432.104175
4414.091813
4429.180697
4429.335129
4428.145661
4426.724623
4428.118744
4428.817581
4430.866820
4432.446897
4432.463076
4431.176864
4428.419897
4424.999155
4428.126577
4429.259925
4431.177865
4431.486232
4427.081667
4427.803039
4407.216649
4458.791937
4441.052305
4435.506181
4447.099098
4397.749699
4407.812893
4424.472438
4436.803944
4427.647098
4391.699460
4467.423843
4404.574052
4428.775288
4429.468444
4430.608232
4431.292757
4430.517011
4428.853234
4427.509230
4425.239328
4426.367248
4425.942404
4429.955899
4433.084989
4431.355994
4429.594562
4428.739284
4444.169389
4410.302098
4436.258643
4440.267983
4418.613097
4450.859936
4412.229328
4428.841726
4400.997044
4440.252065
4435.806555
4432.818579
4425.322027
4457.013490
4422.668051
4419.877065
4429.003903
4429.421440
4427.779454
4426.878365
4427.515703
4429.235698
4430.136311
4432.679999
4431.531471
4431.317984
4428.030662
4424.584187
4427.281080
4427.147866
4430.471386
4431.571072
4431.711074
4429.920943
4387.928205
4379.992263
4451.081764
4435.757489
4428.067428
4443.100998
4443.102978
4423.722674
4436.774603
4390.415470
4414.495774
4432.909814
4450.872598
4428.597670
4429.608483
4430.185023
4431.366257
4430.305233
4428.878898
4427.161282
4425.502379
4425.840181
4425.922728
4428.991838
4433.141272
4430.148876
4428.170012
4427.581148
4455.800031
4420.869028
4462.122781
4445.070359
4437.065507
4438.620153
4437.306462
4462.392236
4432.092966
4425.007563
4392.407418
4429.980463
4443.263368
4408.234742
4435.553330
4421.168086
4428.560573
4429.359322
4427.595424
4426.937032
4427.136304
4429.439614
4429.775050
4432.529167
4431.259260
4430.808962
4428.064800
4424.211593
4426.542601
4427.849523
4425.280948
4434.967099
4415.291780
4433.274609
4404.713501
4473.864315
4395.448896
4431.736425
4450.358987
4439.466886
4408.537045
4403.298576
4427.822258
4408.261050
4418.384478
4450.566549
4420.018356
4428.610979
4429.678966
4429.871293
4431.491530
4429.982296
4429.027645
4426.696859
4425.889043
4425.606572
4426.085440
4428.225594
4433.467606
4428.995529
4428.928941
4428.599602
4430.721676
4446.949938
4456.027654
4429.723867
4352.337910
4438.080724
4435.720451
4429.317482
4416.762898
4435.923186
4435.387238
4464.115600
4458.241459
4425.213966
4483.519971
4417.302997
4428.310294
4429.234806
4427.498249
4426.699721
4427.030006
4429.080215
4429.657852
4432.432091
4430.904450
4431.002142
4427.929705
4424.428830
4427.248322
4427.225189
4426.478304
4419.766762
4402.359970
4383.217954
4386.745359
4392.951283
4483.595734
4424.244893
4426.207473
4416.864422
4417.410921
4440.249588
4401.110929
4473.634758
4381.785628
4425.116687
4422.226524
4428.407081
4429.293803
4430.044731
4430.982994
4430.170567
4428.460080
4426.977813
4425.560169
4426.623416
4425.206740
4428.916037
4433.028803
4430.113170
4428.946045
4427.540991
4438.860296
4437.786853
4394.226005
4409.900777
4437.929071
4436.519161
4428.730288
4424.655193
4485.256859
4447.966871
4422.582833
4406.455560
4463.914977
4448.350800
4412.747761
4401.182446
4428.290053
4428.882091
4427.687518
4426.270648
4427.216842
4428.425253
4429.948448
4431.859490
4431.201837
4430.635801
4428.000909
4424.500015
4427.255839
4426.567176
4428.408297
4450.245010
4429.456093
4424.288503
4467.306092
4377.287410
4416.726876
4426.854369
4432.654686
4389.244661
4444.652286
4453.924647
4441.921938
4402.580553
4424.791385
4418.946567
4443.347064
4428.192744
4429.165454
4429.879541
4430.795863
4430.157770
4428.275050
4426.834016
4426.020372
4426.539332
4425.146401
4428.349517
4432.966613
4430.311654
4428.853775
4427.156610
4425.072370
4443.642634
4411.910308
4453.380911
4457.898557
4433.550039
4447.742693
4481.015682
4393.588275
4459.563671
4416.120611
4436.769916
4462.859982
4405.124957
4463.284250
4409.141800
4428.127964
4429.010162
4427.324114
4426.742732
4426.402527
4428.987111
4429.214666
4431.908003
4430.848726
4430.482172
4427.402169
4424.381032
4425.284676
4426.608080
4424.358634
4438.930367
4484.003439
4447.309449
4382.059241
4441.697454
4428.945573
4427.086571
4430.302025
4480.863873
4440.365990
4449.271219
4433.506262
4408.532627
4414.211574
4421.191067
4427.198122
4427.959598
4429.448766
4429.242942
4431.070992
4430.159707
4428.174656
4426.764072
4426.541925
4426.093418
4425.286545
4427.355831
4432.680922
4428.628835
4427.530520
4425.461795
4423.207343
4422.375730
4431.194054
4429.263062
4414.021502
4445.316092
4441.224010
4434.080548
4459.158337
4448.002552
4446.843644
4418.664132
4429.986928
4415.912346
4472.063919
4441.559489
4427.815806
4429.143390
4427.162831
4426.942213
4426.058760
4429.393479
4428.715766
4432.087770
4430.281276
4430.419077
4427.125700
4424.344269
4425.438696
4425.483764
4426.717760
4401.815431
4443.571235
4397.238584
4421.569134
4446.447624
4431.479547
4427.917734
4439.576313
4396.154722
4460.895939
4430.315038
4432.475627
4411.970999
4380.294475
4399.945150
4447.751702
4427.756986
4429.580495
4428.899539
4431.484844
4429.654380
4428.401277
4426.349964
4427.026562
4426.044143
4425.437097
4427.029769
4432.323457
4428.720885
4427.817644
4425.055024
4435.743599
4423.569128
4407.873530
4453.863749
4385.798836
4428.429356
4420.479376
4443.592727
4427.732831
4428.581640
4456.736804
4388.028521
4450.283491
4478.378573
4413.114867
4400.327497
4427.978306
4428.966722
4427.446519
4426.486564
4426.552883
4428.483575
4429.068047
4432.171154
4430.081141
4430.538577
4427.342942
4424.953092
4424.873695
4425.796974
4424.324152
4428.506025
4420.347351
4427.322850
4411.139233
4404.275509
4442.952457
4425.777102
4431.013319
4425.069680
4448.679805
4457.659230
4448.947766
4471.374274
4392.666040
4441.921337
4430.344065
4427.964007
4429.112251
4429.458847
4430.993732
4429.705083
4428.264014
4426.674489
4426.830859
4427.164629
4425.249567
4426.741657
4432.511435
4429.745679
4427.353849
4426.548075
4425.680524
4413.806048
4438.385750
4438.278289
4393.205220
4429.240976
4446.140703
4416.570077
4450.326276
4409.724120
4473.774331
4391.140519
4451.055704
4451.862635
4404.550003
4414.044208
4428.295489
4429.012831
4427.474024
4426.567602
4426.376040
4428.170623
4429.334917
4431.793520
4430.507238
4429.912884
4428.138856
4424.408312
4425.752803
4425.126631
4425.514975
4441.405217
4451.781152
4447.484106
4458.025818
4388.637329
4416.426548
4440.238134
4368.294358
4477.088779
4437.044279
4440.119796
4420.977602
4457.289550
4464.622366
4400.097064
4416.277597
4428.035645
4428.804593
4429.570181
4430.428319
4430.531177
4427.317098
4427.556655
4426.534889
4427.828593
4424.578563
4426.874947
4432.881790
4428.672867
4426.554038
4426.263313
4442.551560
4421.204376
4424.094701
4461.804456
4389.922624
4435.782388
4435.297995
4426.671726
4470.210232
4481.407796
4469.395227
4416.599755
4378.109798
4464.019422
4367.476237
4419.990244
4428.094386
4429.350109
4427.340304
4427.065182
4425.620054
4429.399392
4428.625285
4431.955158
4430.925277
4430.534830
4427.172473
4425.189626
4424.590679
4424.166587
4424.976754
4425.889931
4436.359522
4411.106378
4382.212836
4421.618995
4445.011923
4446.569125
4423.490195
4379.852091
4456.295072
4400.165944
4443.252359
4433.470732
4401.151500
4412.822027
4444.917010
4427.904965
4429.477727
4428.293918
4431.827409
4430.069261
4428.416846
4427.146405
4428.647362
4426.422938
4424.904469
4427.747109
4431.438097
4428.313005
4427.793644
4424.938029
4426.380078
4422.542498
4426.771550
4435.275109
4454.113986
4423.913891
4428.815414
4483.504485
4440.358845
4414.409749
4434.272264
4390.197311
4483.120193
4402.787876
4564.307128
4411.760831
4428.030529
4429.172461
4428.053251
4426.708690
4426.395963
4428.966100
4428.423871
4432.457059
4430.593867
4429.929446
4427.079422
4426.705293
4424.878710
4425.852197
4422.496011
4429.250314
4418.269356
4434.423221
4432.660305
4466.139524
4466.322497
4439.756003
4445.738794
4492.202222
4427.558152
4433.127316
4442.870172
4441.806527
4444.635144
4275.280894
4427.004260
4428.333148
4429.642114
4428.426836
4431.871701
4429.557428
4428.525288
4426.236012
4429.012583
4425.536027
4426.298156
4427.292232
4430.823009
4427.711149
4427.183635
4423.580795
4422.051759
4407.667979
4392.142704
4402.463909
4449.257290
4413.019351
4438.829032
4439.066402
4452.648209
4396.894156
4401.433297
4434.572634
4443.792180
4429.621543
4383.729315
4404.394591