# vtk DataFile Version 2.0
mfree iwf
ASCII

DATASET UNSTRUCTURED_GRID
POINTS 11907 float
-0.000000 0.000445 0.000000
-0.000000 0.000450 0.000000
-0.000000 0.000455 0.000000
-0.000000 0.000460 0.000000
-0.000000 0.000465 0.000000
-0.000000 0.000470 0.000000
-0.000000 0.000475 0.000000
-0.000000 0.000480 0.000000
-0.000000 0.000485 0.000000
0.000000 0.000490 0.000000
-0.000000 0.000496 0.000000
0.000002 0.000500 0.000000
0.001400 0.001091 0.000000
0.001408 0.001088 0.000000
0.001449 0.001063 0.000000
0.001453 0.001060 0.000000
0.001452 0.001060 0.000000
0.001459 0.001056 0.000000
0.001464 0.001051 0.000000
0.001461 0.001054 0.000000
0.001472 0.001045 0.000000
0.001493 0.001028 0.000000
0.001497 0.001023 0.000000
0.001500 0.001019 0.000000
0.001502 0.001015 0.000000
0.001505 0.001010 0.000000
0.001507 0.001006 0.000000
0.001509 0.001002 0.000000
0.001511 0.000998 0.000000
0.001515 0.000992 0.000000
0.001518 0.000987 0.000000
0.001534 0.000973 0.000000
0.000005 0.000445 0.000000
0.000005 0.000450 0.000000
0.000005 0.000455 0.000000
0.000005 0.000460 0.000000
0.000005 0.000465 0.000000
0.000005 0.000470 0.000000
0.000005 0.000475 0.000000
0.000005 0.000480 0.000000
0.000005 0.000485 0.000000
0.000006 0.000489 0.000000
0.000003 0.000496 0.000000
0.000006 0.000498 0.000000
0.001444 0.001065 0.000000
0.001446 0.001055 0.000000
0.001477 0.001039 0.000000
0.001482 0.001035 0.000000
0.001486 0.001032 0.000000
0.001488 0.001029 0.000000
0.001490 0.001027 0.000000
0.001491 0.001023 0.000000
0.001494 0.001019 0.000000
0.001497 0.001014 0.000000
0.001502 0.001007 0.000000
0.001504 0.001002 0.000000
0.001506 0.000996 0.000000
0.001512 0.000989 0.000000
0.001513 0.000984 0.000000
0.001517 0.000981 0.000000
0.001526 0.000974 0.000000
0.001528 0.000973 0.000000
0.001524 0.000977 0.000000
0.001531 0.000971 0.000000
0.000010 0.000445 0.000000
0.000010 0.000450 0.000000
0.000010 0.000455 0.000000
0.000010 0.000460 0.000000
0.000010 0.000465 0.000000
0.000010 0.000469 0.000000
0.000010 0.000475 0.000000
0.000010 0.000479 0.000000
0.000009 0.000486 0.000000
0.000011 0.000489 0.000000
0.000008 0.000497 0.000000
0.000011 0.000498 0.000000
0.001442 0.001062 0.000000
0.001448 0.001053 0.000000
0.001463 0.001046 0.000000
0.001470 0.001042 0.000000
0.001474 0.001040 0.000000
0.001478 0.001036 0.000000
0.001468 0.001037 0.000000
0.001474 0.001031 0.000000
0.001480 0.001028 0.000000
0.001484 0.001023 0.000000
0.001491 0.001016 0.000000
0.001495 0.001010 0.000000
0.001494 0.001004 0.000000
0.001497 0.001001 0.000000
0.001502 0.000998 0.000000
0.001509 0.000991 0.000000
0.001519 0.000978 0.000000
0.001521 0.000976 0.000000
0.001523 0.000969 0.000000
0.001524 0.000964 0.000000
0.000015 0.000445 0.000000
0.000016 0.000450 0.000000
0.000014 0.000456 0.000000
0.000017 0.000460 0.000000
0.000014 0.000469 0.000000
0.000016 0.000465 0.000000
0.000014 0.000476 0.000000
0.000017 0.000480 0.000000
0.000014 0.000484 0.000000
0.000016 0.000489 0.000000
0.000014 0.000495 0.000000
0.000016 0.000497 0.000000
0.000025 0.000500 0.000000
0.001452 0.001052 0.000000
0.001466 0.001044 0.000000
0.001459 0.001043 0.000000
0.001471 0.001034 0.000000
0.001481 0.001033 0.000000
0.001480 0.001024 0.000000
0.001487 0.001019 0.000000
0.001482 0.001017 0.000000
0.001488 0.001013 0.000000
0.001493 0.000998 0.000000
0.001498 0.001007 0.000000
0.001500 0.000993 0.000000
0.001505 0.000992 0.000000
0.001504 0.000986 0.000000
0.001508 0.000985 0.000000
0.001510 0.000978 0.000000
0.001514 0.000976 0.000000
0.001516 0.000971 0.000000
0.001522 0.000962 0.000000
0.000019 0.000445 0.000000
0.000021 0.000450 0.000000
0.000018 0.000455 0.000000
0.000022 0.000459 0.000000
0.000019 0.000469 0.000000
0.000024 0.000468 0.000000
0.000018 0.000475 0.000000
0.000022 0.000479 0.000000
0.000019 0.000486 0.000000
0.000021 0.000491 0.000000
0.000020 0.000497 0.000000
0.000022 0.000499 0.000000
0.000039 0.000500 0.000000
0.001445 0.001042 0.000000
0.001454 0.001046 0.000000
0.001460 0.001037 0.000000
0.001465 0.001040 0.000000
0.001474 0.001026 0.000000
0.001470 0.001023 0.000000
0.001482 0.001014 0.000000
0.001474 0.001020 0.000000
0.001484 0.001009 0.000000
0.001482 0.001000 0.000000
0.001485 0.000994 0.000000
0.001491 0.000993 0.000000
0.001499 0.000986 0.000000
0.001501 0.000977 0.000000
0.001509 0.000976 0.000000
0.001508 0.000970 0.000000
0.001516 0.000965 0.000000
0.001520 0.000967 0.000000
0.001517 0.000959 0.000000
0.000024 0.000445 0.000000
0.000026 0.000450 0.000000
0.000024 0.000455 0.000000
0.000026 0.000461 0.000000
0.000021 0.000464 0.000000
0.000025 0.000472 0.000000
0.000022 0.000476 0.000000
0.000027 0.000481 0.000000
0.000023 0.000485 0.000000
0.000026 0.000488 0.000000
0.000026 0.000492 0.000000
0.000027 0.000500 0.000000
0.001427 0.001077 0.000000
0.001454 0.001049 0.000000
0.001458 0.001047 0.000000
0.001469 0.001029 0.000000
0.001465 0.001031 0.000000
0.001479 0.001021 0.000000
0.001475 0.001015 0.000000
0.001467 0.001025 0.000000
0.001472 0.001010 0.000000
0.001490 0.001009 0.000000
0.001486 0.001003 0.000000
0.001489 0.001005 0.000000
0.001497 0.000996 0.000000
0.001496 0.000990 0.000000
0.001505 0.000980 0.000000
0.001501 0.000983 0.000000
0.001512 0.000969 0.000000
0.001504 0.000973 0.000000
0.001512 0.000963 0.000000
0.001513 0.000956 0.000000
0.000030 0.000445 0.000000
0.000031 0.000450 0.000000
0.000029 0.000455 0.000000
0.000031 0.000459 0.000000
0.000031 0.000464 0.000000
0.000029 0.000468 0.000000
0.000031 0.000472 0.000000
0.000030 0.000477 0.000000
0.000030 0.000486 0.000000
0.000031 0.000491 0.000000
0.000033 0.000497 0.000000
0.000030 0.000499 0.000000
0.000048 0.000500 0.000000
0.001444 0.001050 0.000000
0.001453 0.001036 0.000000
0.001461 0.001033 0.000000
0.001457 0.001032 0.000000
0.001462 0.001028 0.000000
0.001467 0.001015 0.000000
0.001477 0.001003 0.000000
0.001479 0.001010 0.000000
0.001481 0.001004 0.000000
0.001489 0.000997 0.000000
0.001487 0.000984 0.000000
0.001493 0.000988 0.000000
0.001493 0.000984 0.000000
0.001495 0.000974 0.000000
0.001498 0.000979 0.000000
0.001501 0.000966 0.000000
0.001507 0.000966 0.000000
0.001509 0.000960 0.000000
0.001509 0.000954 0.000000
0.000035 0.000445 0.000000
0.000035 0.000450 0.000000
0.000034 0.000457 0.000000
0.000039 0.000454 0.000000
0.000035 0.000467 0.000000
0.000036 0.000472 0.000000
0.000032 0.000479 0.000000
0.000041 0.000479 0.000000
0.000034 0.000483 0.000000
0.000034 0.000488 0.000000
0.000037 0.000491 0.000000
0.000036 0.000498 0.000000
0.001388 0.001094 0.000000
0.001423 0.001080 0.000000
0.001450 0.001041 0.000000
0.001452 0.001030 0.000000
0.001464 0.001020 0.000000
0.001452 0.001021 0.000000
0.001471 0.001017 0.000000
0.001467 0.001012 0.000000
0.001475 0.001009 0.000000
0.001465 0.001002 0.000000
0.001471 0.000993 0.000000
0.001479 0.000986 0.000000
0.001487 0.000989 0.000000
0.001490 0.000978 0.000000
0.001500 0.000971 0.000000
0.001489 0.000965 0.000000
0.001500 0.000959 0.000000
0.001503 0.000963 0.000000
0.001505 0.000957 0.000000
0.001505 0.000951 0.000000
0.000040 0.000445 0.000000
0.000041 0.000450 0.000000
0.000036 0.000462 0.000000
0.000040 0.000457 0.000000
0.000041 0.000463 0.000000
0.000039 0.000468 0.000000
0.000041 0.000473 0.000000
0.000037 0.000477 0.000000
0.000041 0.000487 0.000000
0.000042 0.000491 0.000000
0.000041 0.000497 0.000000
0.000044 0.000498 0.000000
0.001232 0.001081 0.000000
0.001442 0.001058 0.000000
0.001442 0.001046 0.000000
0.001447 0.001028 0.000000
0.001461 0.001023 0.000000
0.001458 0.001019 0.000000
0.001462 0.001016 0.000000
0.001471 0.001004 0.000000
0.001475 0.000996 0.000000
0.001480 0.000996 0.000000
0.001473 0.001000 0.000000
0.001472 0.000982 0.000000
0.001480 0.000977 0.000000
0.001484 0.000975 0.000000
0.001492 0.000980 0.000000
0.001490 0.000973 0.000000
0.001495 0.000968 0.000000
0.001496 0.000963 0.000000
0.001501 0.000955 0.000000
0.001501 0.000948 0.000000
0.000044 0.000445 0.000000
0.000046 0.000450 0.000000
0.000045 0.000455 0.000000
0.000046 0.000461 0.000000
0.000044 0.000467 0.000000
0.000047 0.000474 0.000000
0.000045 0.000478 0.000000
0.000040 0.000483 0.000000
0.000051 0.000485 0.000000
0.000045 0.000483 0.000000
0.000048 0.000493 0.000000
0.000050 0.000498 0.000000
0.001239 0.001084 0.000000
0.001440 0.001067 0.000000
0.001455 0.001040 0.000000
0.001456 0.001026 0.000000
0.001452 0.001025 0.000000
0.001463 0.001009 0.000000
0.001458 0.001009 0.000000
0.001466 0.001005 0.000000
0.001464 0.000995 0.000000
0.001476 0.000991 0.000000
0.001482 0.000991 0.000000
0.001484 0.000979 0.000000
0.001478 0.000982 0.000000
0.001485 0.000970 0.000000
0.001492 0.000969 0.000000
0.001491 0.000961 0.000000
0.001492 0.000959 0.000000
0.001495 0.000956 0.000000
0.001497 0.000952 0.000000
0.001496 0.000946 0.000000
0.000049 0.000445 0.000000
0.000053 0.000450 0.000000
0.000049 0.000454 0.000000
0.000053 0.000455 0.000000
0.000048 0.000465 0.000000
0.000048 0.000471 0.000000
0.000053 0.000468 0.000000
0.000051 0.000478 0.000000
0.000047 0.000488 0.000000
0.000052 0.000491 0.000000
0.000057 0.000492 0.000000
0.000053 0.000498 0.000000
0.001331 0.001101 0.000000
0.001431 0.001066 0.000000
0.001439 0.001054 0.000000
0.001447 0.001031 0.000000
0.001453 0.001016 0.000000
0.001458 0.001013 0.000000
0.001451 0.001012 0.000000
0.001456 0.001005 0.000000
0.001460 0.000995 0.000000
0.001469 0.000999 0.000000
0.001465 0.000993 0.000000
0.001473 0.000988 0.000000
0.001471 0.000975 0.000000
0.001483 0.000985 0.000000
0.001479 0.000968 0.000000
0.001479 0.000960 0.000000
0.001484 0.000967 0.000000
0.001488 0.000955 0.000000
0.001493 0.000950 0.000000
0.001492 0.000944 0.000000
0.000053 0.000445 0.000000
0.000058 0.000450 0.000000
0.000055 0.000462 0.000000
0.000050 0.000459 0.000000
0.000060 0.000466 0.000000
0.000054 0.000473 0.000000
0.000057 0.000476 0.000000
0.000057 0.000480 0.000000
0.000052 0.000483 0.000000
0.000057 0.000486 0.000000
0.000056 0.000497 0.000000
0.000059 0.000496 0.000000
0.001354 0.001099 0.000000
0.001440 0.001069 0.000000
[...]
POINT_DATA 11907
SCALARS density float 1
LOOKUP_TABLE default
4427.953890
4429.987236
4425.344767
4429.326720
4431.359238
4427.233123
4437.224036
4428.151102
4433.068906
4421.239678
4429.254051
4405.255352
4430.175984
4422.118118
4415.965391
4442.808433
4439.511808
4437.545192
4452.227521
4454.739635
4426.596401
4409.753545
4399.200137
4447.380032
4425.229623
4434.083672
4449.999122
4422.585762
4435.993337
4451.588142
4429.255432
4402.559675
4431.781108
4431.330304
4430.019685
4426.152273
4432.002708
4420.092618
4424.910419
4420.248992
4419.027151
4426.306321
4449.713034
4408.506679
4412.367124
4420.259147
4426.487412
4412.577719
4426.300662
4442.116784
4451.709852
4472.434773
4438.600319
4415.197393
4419.990486
4398.223292
4435.417764
4389.533743
4440.532091
4455.996376
4429.605786
4431.396674
4417.501799
4398.518443
4421.144040
4426.842954
4433.344607
4420.972429
4431.768569
4425.095407
4454.822231
4401.008750
4472.010987
4383.617525
4448.578725
4403.596557
4470.709223
4442.797674
4431.498735
4399.627288
4415.536776
4413.491987
4467.820427
4448.117559
4429.615046
4364.857584
4424.165855
4439.386043
4392.730040
4453.788533
4422.729149
4377.710267
4413.416729
4424.795144
4443.955301
4413.154709
4424.986025
4438.086038
4444.120484
4419.392163
4418.260735
4449.320720
4450.454237
4387.831570
4462.492293
4389.137457
4508.555026
4406.202752
4434.652972
4389.575745
4411.923551
4469.618930
4450.014561
4441.047622
4447.653298
4374.681502
4449.844312
4429.704116
4428.978437
4435.319234
4394.647082
4480.929293
4436.211334
4480.948760
4430.587432
4379.719724
4495.763626
4435.304434
4436.085394
4420.641412
4441.671476
4428.682753
4404.987733
4435.302144
4435.687262
4435.851192
4479.357908
4372.148897
4462.399704
4433.505091
4418.370129
4432.652995
4465.125268
4383.658181
4464.691633
4398.885672
4451.302775
4441.109014
4425.962235
4379.618260
4417.009427
4439.888455
4429.141470
4422.621522
4468.725417
4477.038413
4414.049403
4406.006758
4392.599001
4425.280329
4432.672890
4429.306687
4438.048896
4415.046932
4439.563006
4421.560519
4453.815616
4381.736271
4420.553949
4460.236893
4424.868756
4423.309409
4434.708785
4432.049540
4363.921602
4442.606261
4400.996467
4465.784260
4362.283160
4458.984932
4455.658921
4450.586085
4458.381346
4446.972330
4448.168380
4432.114083
4378.896062
4420.637332
4423.727462
4412.685190
4463.861136
4425.467179
4423.317568
4431.366353
4417.493812
4440.028508
4430.510311
4448.158234
4395.760964
4450.040435
4448.413637
4411.146759
4449.904628
4418.197666
4415.514483
4445.973086
4460.428377
4457.271244
4415.337161
4424.870785
4443.078410
4394.317770
4451.067337
4445.524693
4408.273647
4429.827671
4463.171623
4402.554109
4400.604648
4436.961886
4451.231653
4416.989940
4399.613796
4448.857283
4427.541427
4434.329271
4439.459400
4423.463900
4430.237622
4438.761993
4445.952691
4431.132785
4399.298201
4429.262633
4418.478511
4444.692591
4414.410271
4423.340276
4387.324728
4417.629246
4410.540395
4466.047689
4455.917473
4421.243907
4445.597792
4445.918234
4398.188684
4430.357007
4396.614416
4448.625234
4414.183925
4380.468953
4441.786567
4427.881738
4413.228351
4419.197032
4431.463545
4429.358878
4414.237059
4445.512421
4421.391620
4437.406509
4426.066402
4425.216940
4449.833301
4428.529652
4435.134869
4420.649863
4436.454753
4456.886285
4393.470895
4438.484827
4445.264870
4450.628637
4443.455144
4397.555979
4447.590356
4410.572381
4468.745228
4421.110623
4416.841938
4413.786180
4421.600717
4441.902067
4458.967156
4368.456185
4449.588687
4426.701627
4429.337934
4419.381893
4418.841341
4455.045633
4421.777431
4438.108391
4439.529809
4434.301747
4458.013088
4413.538836
4474.478581
4433.070301
4435.294204
4440.507101
4408.308918
4440.635962
4387.782966
4392.805615
4461.404468
4487.640020
4445.598168
4420.561231
4441.993427
4430.376122
4424.436869
4429.987592
4447.889804
4454.815184
4464.140823
4419.061953
4414.493338
4447.697184
4426.598694
4412.264925
4460.004632
4423.398820
4428.322734
4453.424183
4401.100104
4382.070351
4389.717257
4417.403071
4518.685391
4412.075886
4437.229942
4427.629983
4404.636783
4449.479785
4372.617870
4420.683507
4430.663182
4424.075746
4407.679547
4402.744321
4472.414327
4445.563173
4400.206706
4437.620586
4421.388601
4425.719956
4458.310061
4419.744366
4422.694370
4423.121520
4438.647944
4427.104984
4475.389515
4404.081758
4414.101330
4445.618241
4429.931802
4419.201561
4475.524933
4353.994877
4416.569589
4400.466942
4435.165451
4429.223508
4436.629388
4420.042417
4420.853002
4458.510244
4386.640014
4414.277651
4443.517630
4414.541683
4419.142467
4444.525818
4457.018603
4424.058301
4469.813703
4396.010017
4448.374178
4421.329669
4439.981154
4421.500600
4419.427018
4406.591269
4449.383121
4434.626367
4387.441962
4432.199335
4434.151228
4386.740566
4444.533952
4427.809193
4442.828685
4435.436506
4423.524775
4435.656064
4426.217607
4365.737749
4408.295154
4434.021274
4450.288726
4476.070921
4440.700164
4460.152974
4442.764920
4423.783743
4430.703333
4463.627683
4430.388718
4399.055998
4436.585145
4401.083011
4446.782584
4436.024390
4441.707223
4438.910976
4432.959049
4443.912118
4448.233704
4420.846200
4399.105538
4460.630614
4472.982863
4405.820365
4426.152980
4440.447152
4416.743028
4428.392430
4400.751127
4363.264819
4420.597838
4397.174256
4451.678871
4402.944396
4442.132521
4416.247617
4475.292599
4423.096935
4430.754575
4468.922397
4396.275620
4401.864252
4434.783909
4455.345684
4407.956081
4425.203268
4415.795076
4440.821364
4437.231952
4449.402752
4420.613716
4418.857222
4397.351976
4435.927400
4401.603700
4449.590297
4437.756644
4453.642833
4424.386768
4439.766265
4421.434374
4466.203766
4448.380117
4443.710429
4421.966848
4467.205509
4389.105608
4413.439178
4401.007188
4418.900721
4449.458396
4445.664920
4423.262240
4413.994133
4451.370781
4418.634332
4433.701163
4437.458953
4436.325519
4438.221136
4421.435198
4421.343280
4407.089102
4453.477918
4447.695295
4435.534985
4435.029504
4383.876813
4396.979581
4450.563086
4425.785273
4425.678625
4433.123976
4453.120992
4449.172486
4384.632441
4391.990017
4447.025386
4374.536018
4399.809212
4424.540559
4443.455553
4401.653289
4432.150081
4414.390013
4438.019623
4440.315391
4397.980589
4446.095676
4415.767456
4423.227374
4433.749946
4434.119882
4412.658432
4440.767072
4403.951371
4425.158405
4451.553389
4417.251540
4368.164496
4419.490518
4425.887304
4420.126624
4423.789368
4434.126130
4442.284774
4474.357753
4424.840673
4416.583791
4442.441838
4436.095204
4449.792925
4389.616936
4479.449978
4409.286366
4440.137597
4436.727072
4420.117929
4411.704907
4454.008334
4427.171057
4447.031410
4434.865264
4420.677491
4445.728863
4409.906643
4449.723436
4418.274052
4419.593362
4434.308445
4388.619545
4503.187181
4437.985118
4456.368168
4425.514327
4430.199469
4444.078976
4436.680637
4470.720625
4429.239491
4508.145491
4492.283743
4426.044541
4442.130282
4418.859906
4410.808564
4444.953772
4400.371837
4415.434282
4447.092800
4443.212498
4437.560703
4414.258457
4435.352421
4411.263750
4425.839940
4439.797875
4456.171523
4438.951631
4445.725537
4454.721466
4456.585726
4451.708727
4431.592231
4388.654812
4420.713632
4420.669554
4424.938250
4427.344567
4446.528444
4424.737740
4439.102657
4436.344934
4414.272352
4426.152118
4447.596198
4463.828443
4374.516110
4461.745258
4422.950407
4418.020282
4419.811865
4407.650388
4416.097088
4417.096584
4433.028521
4451.640328
4419.249659
4418.762842
4435.677007
4419.744098
4399.324725
4445.618215
4431.411868
4447.144455
4424.145242
4428.854422
4426.141459
4414.870299
4441.116849
4443.951897
4476.622368
4429.656273
4465.719372
4466.747055
4427.220865
4480.611859
4429.187686
4397.455510
4404.185717
4397.386776
4389.510183
4456.714876
4450.780956
4425.102051
4447.705980
4442.175079
4437.019480
4431.432822
4432.121748
4449.597088
4407.307661
4402.488907
4453.606694
4400.167422
4401.410586
4449.782332
4464.261940
4419.606784
4492.298175
4423.629226
4409.560995
4400.145387
4477.761187
4440.908459
4436.020261
4338.633719
4431.427353
4403.737825
4444.317219
4476.813625
4430.282114
4463.019878
4466.084513
4431.990064
4378.276301
4443.384172
4417.494733
4405.244008
4431.391242
4439.976959
4413.830748
4439.080568
4425.611516
4411.271915
4399.325711
4424.023957
4457.389983
4472.766508
4366.248774
4439.828498
4435.476404
4440.723797
4420.708891
4442.226226
4435.616645
4444.574214
4442.034079
4463.218751
4437.801166
4429.875024
4339.937012
4473.425978
4447.991095
4444.509215
4452.079862
4414.435252
4460.711446
4440.600246
4432.564876
4443.743912
4430.228044
4408.524553
4440.884951
4424.412401
4432.903884
4457.419164
4436.848174
4439.403870
4487.916858
4419.000235
4416.822945
4384.324330
4464.635379
4432.573909
4466.399935
4406.415076
4438.437476
4431.687417
4428.480653
4428.484329
4433.179525
4443.508761
4397.799513
4353.366936
4485.688284
4434.167651
4388.508759
4452.557354
4445.980010
4450.120021
4420.154544
4437.471878
4416.459604
4445.866809
4432.343355
4415.676199
4424.406235
4419.583874
4436.754564
4412.206528
4414.625095
4401.304353
4435.216417
4439.437465
4435.859129
4458.184787
4422.872544
4432.789082
4403.294883
4361.679177
4391.016848
4421.694936
4382.441889
4363.672863
4447.981031
4426.662380
4376.412069
4439.160317
4437.190763
4414.780068
4401.954296
4406.702719
4463.083111
4440.966688
4430.431132
4429.144951
4430.523032
4430.811715
4430.997350
4430.842562
4430.312990
4429.894863
4429.461170
4429.605438
4430.210658
4431.365432
4431.864056
4431.516126
4431.140578
4430.593121
4429.797319
4430.343696
4429.287097
4428.891043
4429.525278
4430.649061
4432.122744
4433.124473
4433.412467
4432.087087
4429.684608
4428.260884
4428.946543
4430.332683
4430.601549
4429.829313
4430.236761
4431.385598
4432.076777
4431.697247
4430.282353
4428.914876
4427.545826
4427.452469
4428.662644
4431.805572
4433.349518
4431.938820
4430.169469
4428.968065
4430.365702
4430.098015
4428.932446
4428.329507
4428.655180
4430.325087
4431.630523
4433.440546
4433.384786
4432.285551
4428.897231
4426.909526
4427.324806
4428.854735
4429.036119
4430.098950
4429.887244
4431.349631
4432.026581
4431.596302
4430.103866
4428.545003
4426.836808
4426.732657
4427.944576
4431.171352
4433.107454
4432.104141
4429.662524
4429.711665
4430.143533
4429.750853
4429.050169
4427.500870
4428.878285
4429.412653
4431.839614
4432.461023
4433.790967
4430.972242
4429.515539
4425.693099
4428.479087
4428.561835
4429.956957
4429.828842
4429.666899
4431.251286
4431.754659
4431.464315
4429.715096
4428.313465
4426.375580
4426.409441
4427.681593
4430.526318
4432.897081
4431.461817
4429.256807
4429.708669
4429.875670
4429.702099
4428.705676
4427.558243
4428.227557
4429.628706
4431.013001
4432.761898
4432.852571
4431.294375
4428.734124
4425.624862
4427.281769
4428.191283
4428.606087
4429.230182
4429.703294
4430.847203
4431.564486
4431.363920
4429.317028
4428.249857
4425.873286
4426.390418
4427.097936
4430.438368
4432.562019
4431.580234
4429.599029
4431.098230
4429.650911
4429.500561
4428.557402
4427.256440
4428.138798
4429.198666
4431.007048
4432.194312
4432.776434
4430.674117
4428.723980
4425.179368
4427.725593
4427.460885
4429.483358
4429.087324
4429.589576
4430.681306
4431.495519
4430.829578
4429.508138
4427.458062
4426.168504
4425.900153
4426.956492
4429.933029
4432.234071
4430.608814
4427.645436
4425.616823
4429.348271
4429.612168
4428.047884
4427.238615
4427.704674
4429.033057
4430.674706
4432.186724
4432.129741
4431.004482
4427.677136
4425.627103
4425.925941
4427.293347
4429.016262
4428.881949
4429.376351
4430.527348
4431.269091
4430.558457
4429.311289
4427.307700
4425.849090
4425.998010
4426.586286
4429.866469
4432.335357
4431.485823
4429.089135
4428.531498
4458.994523
4440.054875
4405.297430
4433.332120
4448.395605
4465.752728
4432.297187
4408.398059
4404.152093
4460.643934
4470.396560
4407.293197
4466.198843
4479.091429
4456.485093
4426.728236
4429.032993
4429.286105
4428.177237
4426.514442
4427.938841
4428.434548
4430.734435
4431.747290
4432.047161
4430.265036
4428.767631
4424.826823
4428.201329
4429.541242
4432.841805
4428.358459
4410.830450
4432.891605
4421.680529
4414.570632
4440.552424
4436.046497
4449.096581
4395.700008
4386.993270
4437.260383
4416.802547
4438.039856
4347.227950
4481.867569
4409.102259
4428.445342
4429.182056
4430.331064
4430.892985
4430.606245
4428.706332
4427.680998
4425.095489
4426.495631
4426.283192
4429.305484
4432.882050
4431.038525
4429.125722
4431.459924
4435.726858
4408.760540
4418.466741
4446.790100
4425.801051
4452.657173
4413.192931
4401.822591
4410.746307
4441.210707
4459.465906
4425.198070
4447.230135
4459.369518
4418.591236
4412.128467
4428.809798
4429.312962
4427.779674
4426.627397
4427.345153
4428.926560
4429.812367
4432.307122
4430.614027
4430.736493
4428.438483
4424.062559
4427.705900
4427.051390
4427.775643
4426.334383
4409.102761
4421.803443
4401.248815
4389.812794
4452.431983
4442.122029
4406.601527
4426.708402
4432.276653
4420.317137
4417.956475
4391.514082
4409.320528
4434.252862
4452.777556
4428.328968
4429.335487
4429.847721
4431.028489
4430.214923
4428.917435
4427.243110
4425.180057
4426.212959
4425.947937
4428.660579
4433.049162
4429.045999
4427.952899
4427.926351
4437.671930
4436.588337
4424.315452
4455.040022
4438.649393
4438.315622
4438.880763
4487.047106
4421.019769
4443.173820
4397.142666
4444.654969
4465.014505
4416.009415
4433.412297
4418.856067
4428.355960
4429.195024
4427.652284
4426.566497
4427.202585
4428.881836
4429.842512
4431.930163
4430.369460
4430.465149
4428.028197
4423.972958
4427.233100
4426.705200
4426.785121
4429.350885
4426.628016
4422.690842
4391.121790
4477.062007
4398.369181
4422.745703
4452.850086
4469.432331
4401.684523
4414.842216
4467.737098
4458.843362
4420.905028
4452.448308
4419.043843
4428.378290
4429.391830
4429.608504
4431.001299
4429.973540
4429.087252
4426.751756
4425.755696
4425.908072
4426.012005
4428.377269
4432.879659
4428.835725
4428.499211
4428.212422
4428.303888
4403.220744
4448.480176
4445.643906
4347.097100
4440.429162
4419.249085
4423.038580
4428.662413
4440.505935
4418.890690
4446.166532
4405.679567
4454.936955
4458.607557
4421.881710
4428.137518
4429.170778
4427.375173
4426.633784
4426.841824
4428.789472
4429.692636
4431.807585
4430.212833
4430.489887
4427.953028
4424.407261
4427.115977
4427.459008
4426.200238
4429.797612
4397.374356
4375.543272
4374.823606
4385.949725
4483.327049
4440.852827
4422.251152
4422.459778
4437.270148
4442.441917
4398.486360
4418.632325
4389.638428
4465.309186
4407.202274
4428.168689
4429.119669
4429.663787
4430.492982
4430.225637
4428.437130
4427.078388
4425.577930
4426.600769
4425.647694
4428.665179
4432.866428
4429.775487
4428.844502
4428.643447
4446.253565
4451.441454
4392.934404
4407.213409
4441.329181
4435.403497
4433.868280
4428.274317
4477.039888
4466.777662
4392.920119
4413.856987
4450.516281
4394.890284
4429.302561
4399.439523
4428.120207
4428.766707
4427.632217
4426.228589
4427.078141
4428.317310
4429.781575
4431.434798
4430.347959
4430.122140
4428.234907
4424.431847
4427.776264
4426.796003
4428.353074
4446.264601
4436.210970
4426.371165
4440.580265
4379.818648
4421.337847
4427.530970
4443.679230
4382.177467
4424.637780
4440.143143
4481.288031
4404.432324
4396.761755
4432.555497
4443.884339
4428.045734
4429.034063
4429.450865
4430.408221
4430.142779
4428.247845
4427.028084
4425.857809
4426.815888
4425.434903
4428.348278
4432.862436
4429.812722
4428.907184
4427.764001
4422.235675
4438.423267
4411.197807
4444.552414
4432.399256
4432.499411
4446.917021
4472.507831
4419.295891
4431.226014
4410.826664
4420.212058
4465.298560
4401.341017
4464.715566
4407.426516
4427.986148
4428.927472
4427.304413
4426.678195
4426.492181
4428.807952
4429.105468
4431.551881
4429.958964
4430.132880
4427.385635
4424.550169
4425.865922
4426.579207
4424.795116
4437.643227
4488.453852
4440.382463
4394.356364
4420.308115
4418.849102
4446.281212
4416.143150
4469.275018
4454.118597
4412.434218
4424.608269
4441.671553
4419.410889
4408.660672
4411.548503
4427.916555
4429.291894
4428.943161
4430.714020
4429.994539
4428.292920
4426.888558
4426.457183
4426.414368
4425.546317
4427.560471
4432.346085
4428.296145
4427.663451
4425.384196
4421.334943
4451.257758
4445.721100
4441.411263
4406.188272
4434.248833
4446.325939
4431.719022
4427.240516
4439.794826
4420.725746
4414.158952
4439.554946
4375.352135
4470.995820
4445.051866
4427.801577
4429.071398
4427.173165
4426.873101
4426.295937
4429.069515
4428.877124
4431.461455
4429.681861
4429.910782
4427.065682
4424.698971
4425.610876
4425.569067
4426.860529
4405.964273
4445.170054
4401.808976
4422.113684
4441.765840
4433.301983
4433.257971
4427.307814
4402.951423
4446.755691
4440.883143
4428.000507
4396.340724
4432.922865
4383.040919
4446.457816
4427.782798
4429.356920
4428.784834
4430.903811
4429.689855
4428.310515
4426.730414
4426.993702
4426.340332
4425.864262
4427.331124
4431.813301
4428.546460
4427.051567
4425.400364
4428.325451
4420.121470
4414.673611
4458.608839
4399.651768
4411.872406
4425.450900
4443.583722
4435.475921
4439.608032
4438.391186
4421.692135
4452.300102
4464.051318
4424.414841
4400.606238
4428.023473
4428.954514
4427.410481
4426.613627
4426.699704
4428.448091
4429.061707
4431.624181
4429.554096
4429.907218
4427.314413
4425.241504
4425.508171
4425.773745
4424.734442
4425.873851
4416.468752
4426.845066
4418.684087
4409.880587
4442.405214
4420.360020
4427.621191
4416.402092
4450.684204
4486.896488
4410.196388
4456.313026
4445.688460
4470.842768
4425.322643
4427.968101
4429.101640
4429.119636
4430.594649
4429.657573
4428.185668
4427.075537
4426.782600
4427.417823
4425.737357
4427.128591
4432.163903
4429.089267
4427.478594
4426.142530
4431.230306
4417.352445
4445.806430
4434.350516
4389.575913
4431.859309
4452.239537
4437.549129
4456.367119
4418.994413
4483.393584
4450.755592
4393.067539
4451.357910
4456.841057
4418.356126
4428.356389
4429.021443
4427.461654
4426.766096
4426.641105
4428.369336
4429.005349
4431.614129
4429.827708
4429.467522
4428.081031
4425.007053
4426.531488
4425.236317
4425.937061
4441.313924
4448.222815
4434.600588
4454.648211
4387.910653
4417.735178
4444.278719
4384.746536
4453.244159
4441.062814
4443.576045
4453.145493
4446.486098
4449.168160
4416.565538
4407.069098
4428.134234
4428.847767
4429.309019
4430.166488
4430.308189
4427.463138
4427.786204
4426.717462
4427.976958
4425.374384
4427.406695
4432.629272
4428.144287
4426.876454
4426.638598
4445.850939
4449.280816
4407.059451
4463.888344
4389.107224
4436.071409
4439.173880
4418.965562
4470.895793
4445.388733
4462.835679
4403.443917
4399.651022
4457.599473
4423.021859
4425.306199
4428.222026
4429.390743
4427.336363
4427.179394
4426.222273
4429.421054
4428.522904
4431.504750
4430.543496
4429.701754
4427.483389
4425.895492
4425.439625
4425.005089
4424.717316
4434.140159
4436.250756
4410.519237
4376.117947
4430.474458
4443.515114
4441.647877
4424.403352
4386.409966
4446.959419
4401.051792
4417.163550
4427.019028
4376.654524
4423.026707
4449.062118
4428.151451
4429.367709
4428.377941
4431.296462
4429.837617
4428.451790
4427.538654
4428.626324
4426.876270
4425.785713
4428.292740
4431.329850
4428.006792
4427.693774
4426.348319
4418.756890
4399.247614
4413.235929
4427.184639
4455.384795
4422.808196
4435.742586
4495.452498
4406.372107
4407.624398
4429.904912
4412.097741
4480.144215
4418.647485
4561.173774
4412.452989
4428.267800
4429.218009
4427.962809
4426.865280
4427.004278
4428.941785
4428.495663
4431.769674
4430.435536
4429.292990
4427.455611
4427.194664
4426.393036
4426.118684
4423.343891
4445.975679
4424.454690
4447.230529
4433.025786
4459.322216
4462.748967
4440.052376
4455.969946
4474.562025
4430.069694
4449.408183
4440.981818
4448.768228
4450.256127
4278.834212
4429.505633
4428.562422
4429.509079
4428.494159
4431.151766
4429.537035
4428.246963
4427.121128
4428.882560
4426.502945
4426.941086
4428.268814
4430.675483
4427.266647
4427.720598
4425.001056
4423.958688
4383.547520
4381.071581
4407.482847
4444.133806
4412.392752
4437.316279
4442.000956
4435.012203
4434.583250
4397.240281
4445.094561
4438.689458
4417.500500
4388.808210
4404.695601