# vtk DataFile Version 2.0
mfree iwf
ASCII

DATASET UNSTRUCTURED_GRID
POINTS 8199 float
0.000002 0.000446 0.000000
0.000002 0.000451 0.000000
0.000002 0.000456 0.000000
0.000002 0.000461 0.000000
0.000002 0.000466 0.000000
0.000002 0.000471 0.000000
0.000002 0.000476 0.000000
0.000002 0.000481 0.000000
0.000002 0.000486 0.000000
0.000002 0.000491 0.000000
0.000002 0.000497 0.000000
0.000004 0.000501 0.000000
0.000045 0.000509 0.000000
0.000045 0.000518 0.000000
0.000045 0.000521 0.000000
0.000045 0.000530 0.000000
0.000045 0.000530 0.000000
0.000045 0.000537 0.000000
0.000045 0.000541 0.000000
0.000045 0.000547 0.000000
0.000045 0.000552 0.000000
0.000045 0.000557 0.000000
0.000045 0.000562 0.000000
0.000045 0.000567 0.000000
0.000045 0.000572 0.000000
0.000045 0.000577 0.000000
0.000045 0.000582 0.000000
0.000045 0.000588 0.000000
0.000045 0.000592 0.000000
0.000045 0.000598 0.000000
0.000045 0.000606 0.000000
0.000045 0.000629 0.000000
0.000006 0.000446 0.000000
0.000007 0.000451 0.000000
0.000007 0.000456 0.000000
0.000007 0.000461 0.000000
0.000007 0.000466 0.000000
0.000007 0.000471 0.000000
0.000007 0.000476 0.000000
0.000007 0.000481 0.000000
0.000007 0.000486 0.000000
0.000008 0.000490 0.000000
0.000006 0.000497 0.000000
0.000008 0.000499 0.000000
0.000048 0.000517 0.000000
0.000049 0.000522 0.000000
0.000050 0.000529 0.000000
0.000049 0.000536 0.000000
0.000049 0.000542 0.000000
0.000049 0.000547 0.000000
0.000049 0.000552 0.000000
0.000049 0.000558 0.000000
0.000049 0.000564 0.000000
0.000049 0.000569 0.000000
0.000049 0.000575 0.000000
0.000049 0.000581 0.000000
0.000049 0.000587 0.000000
0.000049 0.000593 0.000000
0.000048 0.000600 0.000000
0.000048 0.000604 0.000000
0.000046 0.000614 0.000000
0.000045 0.000617 0.000000
0.000045 0.000618 0.000000
0.000045 0.000625 0.000000
0.000011 0.000446 0.000000
0.000012 0.000450 0.000000
0.000011 0.000456 0.000000
0.000012 0.000460 0.000000
0.000011 0.000466 0.000000
0.000012 0.000470 0.000000
0.000012 0.000476 0.000000
0.000013 0.000480 0.000000
0.000011 0.000486 0.000000
0.000013 0.000490 0.000000
0.000011 0.000497 0.000000
0.000013 0.000498 0.000000
0.000053 0.000514 0.000000
0.000055 0.000518 0.000000
0.000053 0.000525 0.000000
0.000054 0.000532 0.000000
0.000053 0.000536 0.000000
0.000054 0.000540 0.000000
0.000055 0.000546 0.000000
0.000054 0.000551 0.000000
0.000055 0.000556 0.000000
0.000053 0.000562 0.000000
0.000055 0.000566 0.000000
0.000053 0.000573 0.000000
0.000055 0.000577 0.000000
0.000054 0.000584 0.000000
0.000052 0.000589 0.000000
0.000053 0.000598 0.000000
0.000050 0.000607 0.000000
0.000050 0.000613 0.000000
0.000047 0.000621 0.000000
0.000050 0.000627 0.000000
0.000016 0.000446 0.000000
0.000017 0.000450 0.000000
0.000016 0.000456 0.000000
0.000018 0.000460 0.000000
0.000016 0.000466 0.000000
0.000018 0.000470 0.000000
0.000016 0.000476 0.000000
0.000018 0.000480 0.000000
0.000016 0.000486 0.000000
0.000018 0.000490 0.000000
0.000017 0.000496 0.000000
0.000019 0.000498 0.000000
0.000027 0.000500 0.000000
0.000055 0.000524 0.000000
0.000057 0.000529 0.000000
0.000059 0.000534 0.000000
0.000061 0.000542 0.000000
0.000056 0.000547 0.000000
0.000061 0.000552 0.000000
0.000056 0.000558 0.000000
0.000061 0.000564 0.000000
0.000055 0.000569 0.000000
0.000061 0.000576 0.000000
0.000055 0.000581 0.000000
0.000057 0.000588 0.000000
0.000056 0.000594 0.000000
0.000055 0.000600 0.000000
0.000055 0.000604 0.000000
0.000054 0.000608 0.000000
0.000053 0.000616 0.000000
0.000053 0.000620 0.000000
0.000053 0.000627 0.000000
0.000021 0.000446 0.000000
0.000022 0.000450 0.000000
0.000021 0.000456 0.000000
0.000023 0.000460 0.000000
0.000020 0.000466 0.000000
0.000023 0.000470 0.000000
0.000021 0.000476 0.000000
0.000023 0.000480 0.000000
0.000021 0.000486 0.000000
0.000023 0.000491 0.000000
0.000023 0.000498 0.000000
0.000024 0.000499 0.000000
0.000042 0.000501 0.000000
0.000062 0.000522 0.000000
0.000064 0.000526 0.000000
0.000064 0.000533 0.000000
0.000061 0.000539 0.000000
0.000064 0.000543 0.000000
0.000061 0.000550 0.000000
0.000063 0.000556 0.000000
0.000061 0.000560 0.000000
0.000062 0.000568 0.000000
0.000061 0.000572 0.000000
0.000061 0.000580 0.000000
0.000062 0.000584 0.000000
0.000061 0.000592 0.000000
0.000061 0.000596 0.000000
0.000060 0.000605 0.000000
0.000058 0.000612 0.000000
0.000059 0.000617 0.000000
0.000057 0.000621 0.000000
0.000057 0.000627 0.000000
0.000026 0.000445 0.000000
0.000027 0.000450 0.000000
0.000026 0.000456 0.000000
0.000028 0.000460 0.000000
0.000026 0.000465 0.000000
0.000027 0.000470 0.000000
0.000026 0.000476 0.000000
0.000028 0.000480 0.000000
0.000026 0.000486 0.000000
0.000028 0.000490 0.000000
0.000028 0.000493 0.000000
0.000029 0.000500 0.000000
0.000049 0.000514 0.000000
0.000059 0.000520 0.000000
0.000063 0.000528 0.000000
0.000066 0.000534 0.000000
0.000068 0.000539 0.000000
0.000066 0.000547 0.000000
0.000068 0.000551 0.000000
0.000067 0.000557 0.000000
0.000066 0.000564 0.000000
0.000067 0.000569 0.000000
0.000065 0.000575 0.000000
0.000066 0.000582 0.000000
0.000064 0.000588 0.000000
0.000065 0.000595 0.000000
0.000062 0.000600 0.000000
0.000064 0.000605 0.000000
0.000061 0.000610 0.000000
0.000063 0.000615 0.000000
0.000062 0.000622 0.000000
0.000062 0.000627 0.000000
0.000031 0.000445 0.000000
0.000032 0.000450 0.000000
0.000031 0.000455 0.000000
0.000032 0.000460 0.000000
0.000031 0.000466 0.000000
0.000033 0.000470 0.000000
0.000032 0.000475 0.000000
0.000032 0.000480 0.000000
0.000032 0.000485 0.000000
0.000033 0.000491 0.000000
0.000035 0.000498 0.000000
0.000033 0.000499 0.000000
0.000045 0.000502 0.000000
0.000066 0.000519 0.000000
0.000072 0.000529 0.000000
0.000070 0.000534 0.000000
0.000071 0.000543 0.000000
0.000072 0.000546 0.000000
0.000071 0.000553 0.000000
0.000070 0.000560 0.000000
0.000072 0.000564 0.000000
0.000070 0.000572 0.000000
0.000071 0.000576 0.000000
0.000069 0.000584 0.000000
0.000069 0.000588 0.000000
0.000068 0.000593 0.000000
0.000068 0.000600 0.000000
0.000067 0.000607 0.000000
0.000068 0.000612 0.000000
0.000066 0.000618 0.000000
0.000067 0.000622 0.000000
0.000067 0.000627 0.000000
0.000036 0.000445 0.000000
0.000037 0.000450 0.000000
0.000037 0.000456 0.000000
0.000036 0.000461 0.000000
0.000037 0.000465 0.000000
0.000037 0.000470 0.000000
0.000036 0.000476 0.000000
0.000038 0.000480 0.000000
0.000037 0.000486 0.000000
0.000038 0.000489 0.000000
0.000039 0.000493 0.000000
0.000038 0.000498 0.000000
0.000050 0.000508 0.000000
0.000055 0.000510 0.000000
0.000070 0.000526 0.000000
0.000074 0.000534 0.000000
0.000075 0.000540 0.000000
0.000076 0.000546 0.000000
0.000074 0.000554 0.000000
0.000076 0.000558 0.000000
0.000074 0.000566 0.000000
0.000076 0.000571 0.000000
0.000073 0.000578 0.000000
0.000075 0.000583 0.000000
0.000073 0.000590 0.000000
0.000073 0.000596 0.000000
0.000071 0.000601 0.000000
0.000073 0.000605 0.000000
0.000071 0.000611 0.000000
0.000072 0.000616 0.000000
0.000072 0.000622 0.000000
0.000071 0.000628 0.000000
0.000041 0.000445 0.000000
0.000042 0.000450 0.000000
0.000041 0.000456 0.000000
0.000042 0.000460 0.000000
0.000042 0.000466 0.000000
0.000041 0.000471 0.000000
0.000044 0.000474 0.000000
0.000042 0.000479 0.000000
0.000042 0.000485 0.000000
0.000044 0.000491 0.000000
0.000044 0.000496 0.000000
0.000049 0.000500 0.000000
0.000049 0.000505 0.000000
0.000060 0.000515 0.000000
0.000076 0.000528 0.000000
0.000078 0.000534 0.000000
0.000078 0.000541 0.000000
0.000079 0.000549 0.000000
0.000080 0.000553 0.000000
0.000079 0.000561 0.000000
0.000079 0.000566 0.000000
0.000078 0.000573 0.000000
0.000078 0.000578 0.000000
0.000078 0.000585 0.000000
0.000078 0.000590 0.000000
0.000077 0.000595 0.000000
0.000077 0.000601 0.000000
0.000076 0.000607 0.000000
0.000077 0.000612 0.000000
0.000076 0.000618 0.000000
0.000076 0.000623 0.000000
0.000076 0.000628 0.000000
0.000046 0.000445 0.000000
0.000047 0.000450 0.000000
0.000046 0.000455 0.000000
0.000048 0.000460 0.000000
0.000046 0.000465 0.000000
0.000048 0.000470 0.000000
0.000047 0.000476 0.000000
0.000046 0.000482 0.000000
0.000050 0.000483 0.000000
0.000047 0.000489 0.000000
0.000049 0.000494 0.000000
0.000053 0.000498 0.000000
0.000056 0.000506 0.000000
0.000060 0.000513 0.000000
0.000070 0.000521 0.000000
0.000083 0.000536 0.000000
0.000082 0.000541 0.000000
0.000084 0.000548 0.000000
0.000083 0.000555 0.000000
0.000084 0.000561 0.000000
0.000083 0.000567 0.000000
0.000083 0.000573 0.000000
0.000082 0.000579 0.000000
0.000082 0.000585 0.000000
0.000082 0.000590 0.000000
0.000081 0.000596 0.000000
0.000082 0.000602 0.000000
0.000081 0.000607 0.000000
0.000081 0.000612 0.000000
0.000081 0.000617 0.000000
0.000081 0.000623 0.000000
0.000081 0.000628 0.000000
0.000051 0.000445 0.000000
0.000052 0.000450 0.000000
0.000051 0.000456 0.000000
0.000053 0.000460 0.000000
0.000051 0.000465 0.000000
0.000053 0.000470 0.000000
0.000051 0.000475 0.000000
0.000053 0.000480 0.000000
0.000051 0.000486 0.000000
0.000053 0.000491 0.000000
0.000057 0.000494 0.000000
0.000056 0.000502 0.000000
0.000061 0.000504 0.000000
0.000064 0.000511 0.000000
0.000075 0.000521 0.000000
0.000081 0.000529 0.000000
0.000086 0.000541 0.000000
0.000086 0.000548 0.000000
0.000087 0.000555 0.000000
0.000087 0.000561 0.000000
0.000087 0.000567 0.000000
0.000087 0.000573 0.000000
0.000087 0.000579 0.000000
0.000086 0.000585 0.000000
0.000086 0.000591 0.000000
0.000087 0.000596 0.000000
0.000085 0.000602 0.000000
0.000087 0.000607 0.000000
0.000085 0.000612 0.000000
0.000086 0.000618 0.000000
0.000086 0.000623 0.000000
0.000086 0.000628 0.000000
0.000056 0.000445 0.000000
0.000057 0.000450 0.000000
0.000057 0.000455 0.000000
0.000057 0.000460 0.000000
0.000056 0.000465 0.000000
0.000057 0.000470 0.000000
0.000057 0.000475 0.000000
0.000058 0.000480 0.000000
0.000057 0.000485 0.000000
0.000060 0.000489 0.000000
0.000058 0.000497 0.000000
0.000062 0.000499 0.000000
0.000064 0.000506 0.000000
0.000067 0.000513 0.000000
0.000071 0.000517 0.000000
[...]
POINT_DATA 8199
SCALARS density float 1
LOOKUP_TABLE default
4420.155946
4424.720996
4422.631717
4423.364175
4427.162637
4422.517500
4430.388935
4427.979536
4439.869775
4422.764362
4434.615122
4397.875713
4664.086431
4436.174012
4624.951554
4486.848228
4517.311116
4522.974618
4530.492917
4521.348244
4530.515968
4528.535818
4525.946355
4530.590845
4528.704989
4540.624175
4533.906739
4531.776682
4541.966838
4568.961732
4641.468788
4439.720782
4428.078363
4425.015623
4421.579195
4424.079892
4426.297150
4419.584772
4430.499063
4430.437073
4403.726045
4426.764211
4450.827025
4397.029172
4441.729170
4425.653591
4454.283031
4431.192651
4445.559593
4455.290171
4447.486334
4441.457765
4440.674710
4434.986199
4435.759451
4433.797906
4433.634795
4415.284849
4407.722878
4409.214288
4406.631140
4394.317647
4582.511120
4520.826761
4421.727206
4415.659300
4434.963012
4423.669127
4438.360466
4416.632205
4443.582207
4378.940248
4473.951338
4355.777019
4479.810594
4394.572802
4450.882663
4502.606432
4488.088550
4461.584038
4492.319282
4466.192755
4468.667396
4471.121289
4470.076427
4484.395606
4459.505096
4486.206526
4459.887546
4479.371055
4478.032539
4499.128961
4437.856050
4475.872425
4384.479417
4464.244117
4423.787610
4427.337106
4440.111142
4425.546246
4438.371935
4408.132693
4454.400356
4408.698891
4478.755162
4382.681067
4519.413547
4403.295772
4422.899868
4428.677592
4482.184175
4443.369972
4452.785712
4461.295112
4467.148744
4459.198850
4460.366954
4467.126995
4444.012836
4474.294200
4428.446322
4469.917924
4446.112444
4493.602185
4447.223301
4445.212389
4480.957727
4465.765998
4424.621088
4430.936065
4439.799423
4416.411444
4440.153112
4438.671230
4450.218193
4412.846995
4456.127856
4369.943069
4468.858885
4409.443964
4616.974148
4446.582996
4476.695472
4461.283325
4471.586815
4480.387036
4462.909748
4464.221137
4457.684847
4467.369641
4463.186448
4459.118955
4475.470480
4470.469984
4454.819253
4462.222757
4428.024567
4476.768509
4411.057903
4464.814361
4430.861605
4443.763643
4412.559651
4446.410840
4450.041688
4411.319720
4429.038620
4435.415711
4450.909316
4456.089461
4443.453434
4437.212795
4462.124780
4482.897114
4460.030653
4456.459609
4432.742655
4446.689644
4464.220536
4457.422033
4473.459706
4442.115680
4474.170370
4450.591072
4439.927088
4477.423553
4423.014988
4474.958602
4455.199168
4457.929744
4455.631468
4461.247442
4426.360215
4440.197450
4418.666568
4444.765280
4397.488563
4460.388233
4450.121601
4430.315598
4403.767404
4390.303303
4457.210640
4424.132277
4364.355426
4458.904707
4469.453962
4486.663552
4474.395137
4462.711383
4466.314724
4461.353139
4458.965695
4472.153572
4438.244832
4462.783210
4456.809341
4432.258614
4463.296778
4430.164657
4460.071307
4441.494125
4451.608485
4452.120429
4434.553408
4434.608817
4427.377564
4429.535669
4429.431287
4455.254040
4386.796273
4430.415896
4439.529605
4460.023579
4450.870750
4393.688049
4443.760804
4481.034251
4443.697007
4463.118767
4449.221539
4461.654602
4463.579802
4456.324801
4468.197703
4450.201152
4459.942278
4453.382643
4467.905358
4442.748186
4454.827368
4452.053536
4459.171659
4448.188863
4461.713088
4449.382332
4429.763575
4429.936783
4437.284188
4423.772584
4435.656543
4398.005440
4428.121761
4480.718546
4373.927201
4421.073292
4431.834360
4554.421316
4452.382870
4441.812550
4432.717699
4472.445411
4483.209287
4448.476291
4477.342349
4446.462606
4464.198339
4444.682811
4464.396209
4442.064389
4448.885174
4459.053381
4449.702503
4456.377950
4445.840544
4453.488936
4451.920911
4445.446568
4438.039730
4437.516359
4428.707279
4430.208442
4426.920508
4432.674420
4450.313525
4376.365235
4444.615259
4455.912403
4419.534457
4432.720075
4482.496374
4453.676582
4481.898453
4444.875124
4460.180984
4457.233492
4460.413822
4460.137165
4454.088624
4456.537754
4452.978960
4454.510344
4464.446097
4440.876614
4459.453553
4445.051230
4461.187454
4449.374015
4451.681790
4449.126302
4437.315170
4442.379058
4416.064213
4434.973112
4412.436713
4432.841180
4396.556185
4442.634268
4462.694558
4390.240508
4458.728486
4426.005374
4478.204775
4470.339033
4454.205857
4474.956663
4470.832033
4472.076584
4451.250076
4458.954958
4448.468360
4456.997445
4449.473319
4449.671314
4448.445152
4454.152736
4453.617737
4444.934524
4451.906974
4446.274090
4450.612285
4448.114010
4443.218000
4439.546499
4426.635194
4435.371405
4420.977512
4441.452492
4435.662031
4424.852133
4377.457806
4445.540934
4477.525291
4409.413618
4447.679874
4492.576102
4436.006889
4456.869848
4460.873116
4463.539926
4459.039745
4453.855755
4462.336696
4449.915394
4459.413092
4452.078116
4452.435348
4455.961711
4447.477594
4457.375762
4448.902227
4451.512173
4450.652602
4444.441976
4435.562262
4426.451712
4427.587374
4434.059202
4426.248702
4436.415624
4405.551400
4442.314199
4471.723039
4458.512427
4405.313900
4479.557994
4421.230289
4458.838753
4483.199185
4452.966224
4461.051398
4459.281940
4465.075531
4454.736311
4454.793895
4455.607028
4447.216443
4450.225057
4454.255490
4446.279757
4457.484129
4446.774746
4452.993448
4447.763191
4448.494178
4447.518033
4442.266509
4437.939663
4435.456682
4436.902633
4435.561320
4433.748466
4439.297711
4454.927485
4379.064642
4457.852277
4454.285187
4463.120749
4427.324495
4464.052158
4461.121667
4445.071331
4435.047350
4470.372574
4454.856413
4460.603179
4455.485801
4452.288521
4458.616841
4451.890163
4454.228776
4451.166699
4454.289111
4448.065551
4453.692416
4448.361528
4449.535876
4445.549485
4430.951064
4427.445275
4435.185309
4422.490433
4422.374324
4430.463668
4421.198167
4405.953352
4427.953518
4468.243757
4419.983527
4424.915797
4461.916175
4430.773243
4460.226999
4477.044358
4463.007375
4471.191307
4467.320903
4463.081589
4460.576162
4450.233473
4454.581081
4448.736958
4452.944579
4448.985106
4450.433280
4450.960246
4451.185886
4446.019219
4450.274623
4443.580458
4442.819876
4445.337825
4424.973265
4441.591950
4444.931032
4422.875179
4432.231777
4434.689936
4434.897785
4416.056525
4449.261176
4472.737779
4447.393204
4453.494963
4464.791449
4436.783626
4466.372731
4438.784366
4464.560425
4460.384668
4457.007482
4455.066128
4458.262302
4452.307734
4457.648601
4449.152588
4454.892200
4447.847289
4453.585816
4448.191590
4448.910696
4444.149074
4431.444987
4432.150426
4434.187990
4433.155276
4408.816721
4444.701339
4438.039021
4416.306201
4436.893252
4427.060767
4474.890719
4411.783744
4448.380443
4426.636738
4448.391459
4474.509864
4460.573292
4447.084772
4460.178978
4469.535907
4455.566540
4469.960165
4451.771415
4451.114948
4450.457954
4449.918889
4452.111655
4447.662450
4453.400574
4446.428780
4448.374593
4445.398445
4448.754472
4434.165310
4432.888167
4421.817568
4443.996894
4430.741982
4415.643885
4437.499077
4470.061453
4412.721863
4430.558810
4459.189487
4458.855716
4448.709856
4445.456636
4428.420184
4446.112622
4457.972332
4446.336988
4458.684710
4450.100849
4453.197794
4461.443067
4460.717987
4458.149508
4450.116104
4454.322488
4450.250888
4450.542732
4449.087137
4447.400814
4442.703986
4427.672354
4426.420263
4431.067724
4441.753251
4419.766540
4419.577150
4424.966201
4444.518632
4402.422900
4455.821385
4460.058716
4441.108875
4436.067106
4445.765563
4435.733460
4455.383514
4460.837019
4449.769612
4458.009593
4442.888159
4468.470022
4461.153725
4452.824898
4459.293869
4448.857121
4456.173191
4449.899634
4451.816445
4449.210390
4447.758926
4448.026233
4444.549622
4448.253845
4430.674774
4437.803054
4415.665060
4436.896026
4434.963902
4434.155359
4441.237683
4401.545772
4465.181648
4391.584474
4466.471590
4452.168963
4441.130011
4436.047733
4453.014240
4434.674329
4459.537443
4457.139947
4472.640392
4432.480615
4444.279408
4471.692302
4460.815506
4454.775129
4455.377848
4454.130363
4449.313683
4454.433730
4447.008168
4446.222706
4443.183392
4417.475100
4430.612630
4431.436287
4443.021246
4436.657266
4420.039051
4432.229306
4406.772241
4462.282308
4405.142703
4423.496866
4468.062279
4409.497043
4470.910866
4420.582127
4428.697283
4445.667470
4438.669839
4431.359445
4430.515250
4464.220689
4461.671629
4456.742932
4454.261641
4463.464128
4457.163056
4455.126333
4453.445746
4447.565578
4450.564924
4446.037757
4442.859972
4449.280521
4431.016389
4435.299428
4420.374893
4412.149508
4450.155363
4436.674538
4436.111986
4451.590418
4405.515994
4468.642104
4389.236945
4470.479634
4458.515525
4444.841451
4463.930884
4441.170466
4466.550263
4454.259314
4446.210445
4443.922025
4448.764647
4463.035721
4452.713822
4451.457928
4458.967344
4449.174324
4457.611955
4452.730098
4450.116007
4445.224109
4442.954436
4423.812837
4430.033641
4435.922668
4427.916767
4432.900945
4416.844390
4407.984061
4445.856196
4423.784800
4448.637872
4445.656912
4437.760847
4460.006009
4403.604529
4462.223436
4425.313035
4436.966523
4437.190338
4416.073205
4466.126665
4452.245235
4435.429646
4460.942199
4447.653853
4463.465357
4458.066723
4460.908131
4448.640300
4458.476620
4447.742183
4447.265803
4440.921666
4442.239664
4439.684549
4430.458370
4432.628512
4443.190237
4425.947602
4438.357378
4428.358947
4433.794887
4446.141974
4401.265529
4447.239414
4413.576192
4468.314383
4456.906177
4423.607165
4468.942277
4445.395741
4458.005306
4421.135016
4457.351521
4453.270796
4445.235068
4457.030538
4452.655674
4453.437382
4449.002243
4458.252662
4451.842342
4448.227137
4448.907889
4439.674556
4389.178027
4421.618416
4420.305587
4421.249323
4422.477237
4422.616633
4423.422452
4423.648047
4424.206903
4424.498513
4424.990573
4425.150583
4425.680922
4426.093603
4427.505125
4396.820025
4417.920228
4417.049013
4418.846351
4420.354164
4420.596716
4421.899990
4422.019325
4423.073757
4423.255260
4424.169327
4424.455974
4425.066362
4424.237291
4429.339654
4404.073504
4418.721017
4416.658878
4419.499230
4420.576008
4421.163049
4422.493437
4422.510205
4424.043977
4423.833169
4425.589797
4424.918200
4426.798228
4426.068613
4430.339619
4408.617801
4420.578922
4418.157004
4420.761795
4421.166574
4422.232065
4423.147675
4423.601286
4424.797991
4424.982278
4426.463621
4426.406470
4428.593229
4428.019806
4433.420959
4413.465670
4421.682488
4420.245210
4421.632360
4422.468101
4423.063315
4424.156085
4424.444020
4425.744233
4426.067453
4427.446068
4427.684119
4429.629938
4429.282893
4434.239428
4416.335220
4422.976941
4421.907600
4422.622314
4423.833034
4423.831143
4425.259594
4425.233422
4426.784413
4426.794465
4428.601018
4428.666080
4430.934491
4430.949204
4434.215408
4419.208169
4424.275267
4423.377631
4423.930589
4424.848556
4424.873707
4426.187579
4426.141120
4427.604724
4427.798703
4429.341459
4429.702071
4431.562266
4431.993304
4435.059295
4421.550540
4425.393655
4424.609566
4425.148129
4425.788322
4426.036888
4426.900627
4427.176300
4428.265695
4428.682511
4429.991354
4430.406341
4432.358365
4432.351309
4435.829542
4423.545941
4426.469156
4425.873300
4426.254419
4426.792952
4426.969540
4427.754694
4428.013053
4429.011640
4429.318662
4430.684088
4431.010930
4432.652086
4432.638303
4434.099707
4425.530968
4427.406750
4426.879316
4427.310650
4427.662856
4427.898270
4428.554995
4428.766847
4429.644018
4430.056632
4431.074563
4431.485319
4432.947794
4433.233063
4434.621199
4427.186131
4428.272014
4427.960691
4428.296534
4428.466701
4428.852303
4429.158350
4429.658313
4430.132996
4430.669157
4431.428707
4432.054434
4432.944231
4432.872586
4434.288009
4428.633750
4429.048227
4428.778425
4429.175475
4429.209887
4429.660907
4429.815012
4430.346729
4430.611389
4431.318157
4431.674877
4432.276206
4432.923611
4433.459741
4434.055336
4429.955665
4429.744610
4429.692178
4429.981246
4429.971669
4430.366297
4430.498814
4430.969603
4431.177785
4431.741426
4432.007044
4432.794180
4432.771494
4434.355669
4434.515109
4429.294433
4433.992717
4439.807331
4417.395507
4424.460917
4444.093915
4431.211199
4473.340879
4445.318921
4430.379637
4432.436068
4457.810149
4460.337632
4462.198796
4455.435759
4439.436216
4431.109293
4430.333113
4430.409167
4430.634986
4430.638426
4431.039732
4431.072245
4431.549852
4431.685432
4432.200171
4432.378780
4432.945451
4433.082630
4434.149648
4434.607849
4423.211821
4412.937759
4422.723646
4439.596490
4439.280300
4451.045893
4431.020610
4425.065822
4433.793396
4436.992869
4440.307654
4451.078698
4447.287673
4443.615196
4456.368715
4440.311159
4432.184430
4430.889889
4431.169467
4431.320678
4431.281367
4431.630770
4431.689967
4432.106045
4432.176234
4432.661968
4432.783386
4433.291091
4433.429947
4433.904313
4434.458136
4443.103153
4425.685895
4434.426972
4418.766969
4410.137750
4434.588989
4427.970729
4450.585836
4437.259966
4441.622958
4442.477257
4441.076140
4427.535577
4421.485935
4450.615552
4441.200004
4433.109395
4431.367414
4431.750635
4431.839684
4431.850319
4432.179923
4432.214509
4432.585300
4432.714514
4433.085450
4433.232260
4433.645896
4433.685365
4434.534322
4434.089442
4426.289325
4446.522075
4433.995448
4452.192300
4426.082337
4445.104787
4432.867873
4429.990576
4439.070670
4450.037958
4452.640266
4457.326332
4455.515642
4447.035153
4422.024449
4444.763717
4433.958628
4431.808752
4432.394613
4432.386900
4432.411439
4432.680014
4432.746460
4433.087813
4433.204214
4433.532773
4433.740918
4434.197335
4434.142995
4435.301664
4434.994742
4432.125927
4443.935611
4395.008582
4418.082833
4424.370892
4406.580647
4443.110811
4433.605762
4447.174744
4449.287206
4446.516045
4449.940351
4436.119049
4411.249577
4403.394037
4456.404329
4434.705037
4432.188491
4432.850930
4432.817940
4432.877549
4433.126556
4433.209780
4433.527636
4433.650980
4434.050788
4434.161367
4434.617576
4434.831548
4435.688952
4435.414685
4431.392564
4415.146327
4458.134052
4450.587890
4442.045316
4425.481508
4454.779615
4439.616630
4435.395013
4438.426184
4436.463058
4438.455767
4450.604198
4450.949580
4450.420443
4453.495838
4435.393096
4432.543654
4433.376963
4433.267596
4433.326924
4433.578945
4433.636573
4433.974738
4434.125579
4434.444322
4434.704984
4435.139040
4435.443880
4436.564647
4436.132714
4440.181120
4419.930664
4444.131076
4387.185493
4420.831167
4454.611273
4433.531971
4431.246345
4430.915756
4449.603893
4445.815754
4454.579090
4448.260881
4447.363095
4464.958453
4456.790124
4435.970323
4432.839617
4433.727575
4433.604599
4433.695498
4433.929588
4434.022094
4434.355055
4434.504185
4434.881640
4435.144276
4435.619119
4435.735615
4436.856540
4436.586697
4442.390795
4444.688438
4446.294226
4441.494667
4451.486661
4408.930952
4398.959088
4448.129860
4442.524008
4456.991997
4450.459951
4461.195201
4469.358163
4468.632524
4470.110312
4468.451139
4436.496344
4433.117956
4434.128931
4433.957269
4434.053459
4434.283850
4434.386210
4434.699844
4434.895811
4435.311480
4435.494235
4436.075584
4436.423328
4437.541124
4436.522707
4433.890575
4426.084547
4413.394635
4470.105935
4420.687924
4468.221988
4459.032125
4472.396989
4450.306806
4459.163826
4460.850948
4459.167017
4471.324912
4473.535814
4478.813172
4474.815203
4436.916651
4433.336966
4434.371288
4434.209524
4434.313116
4434.561268
4434.652704
4435.016357
4435.217063
4435.558714
4436.003947
4436.410035
4436.658312
4437.837358
4437.289222
4436.500618
4440.985687
4453.062046
4448.978452
4397.705585
4452.195215
4409.164070
4417.711215
4458.487015
4457.080633
4467.174679
4464.917930
4481.535691
4467.785108
4471.738514
4467.417230
4437.292350
4433.540897
4434.657364
4434.480364
4434.560106
4434.826128
4434.920087
4435.264245
4435.495275
4435.928565
4436.238319
4436.697232
4437.280167
4438.242573
4437.282866
4445.168135
4436.837398
4425.756877
4425.062180
4458.881187
4464.715708
4415.411217
4430.957866
4431.547952
4430.232500
4454.598569
4450.042706
4464.209325
4453.891507
4462.862502
4458.820074
4437.562608
4433.682668
4434.809325
4434.638883
4434.732335
4435.007807
4435.083640
4435.492860
4435.664781
4436.150113
4436.467229
4437.150411
4437.304315
4438.149660
4437.797595
4440.794445
4449.782462
4449.837186
4401.299118
4441.939663
4385.997658
4454.474755
4430.898671
4436.911360
4459.152568
4455.788065
4457.022303
4453.419422
4453.884082
4455.819457
4453.954425
4437.773645
4433.799527
4435.013357
4434.800875
4434.900019
4435.170987
4435.242815
4435.639119
4435.841477
4436.319868
4436.684355
4437.197151
4437.800294
4439.260612
4437.346328
4435.148322
4448.047740
4388.501142
4460.985886
4461.031451
4411.748016
4467.026269
4395.768141
4447.442812
4456.362464
4440.431540
4457.218911
4450.534218
4458.054057
4456.813325
4452.614601
4437.882006
4433.879925
4435.070965
4434.876519
4434.986856
4435.237358
4435.356969
4435.670522
4435.982171
4436.327863
4436.796882
4437.386438
4437.671275
4439.022917
4437.955886
4442.648766
4433.681298
4448.946814
4453.834239
4385.442248
4456.634519
4474.500132
4419.640144
4447.697014
4434.009098
4446.756081
4451.941616
4448.812253
4452.154103
4450.508482
4451.218241
4437.933988
4433.947310
4435.162621
4434.978661
4435.054652
4435.313624
4435.406704
4435.737515
4435.989536
4436.387994
4436.815081
4437.283847
4438.058373
4439.159314
4438.564613
4439.082039
4407.242015
4444.943545
4400.361683
4459.600078
4461.056574
4394.025514
4455.668782
4448.725585
4448.558735
4462.517553
4451.147899
4451.539631
4452.081903
4452.071820
4450.852037
4437.919673
4433.961692
4435.155583
4434.978843
4435.041516
4435.344800
4435.351917
4435.763163
4435.877258
4436.393077
4436.640132
4437.285667
4437.733541
4438.624261
4437.903774
4452.148212
4459.443930
4467.200957
4383.570154
4441.212679
4389.827216
4458.401741
4455.760807
4385.135632
4441.142882
4447.557301
4440.760739
4450.939263
4449.872097
4449.067419
4449.321779
4437.851583
4433.968355
4435.179839
4435.000234
4435.049906
4435.312103
4435.345232
4435.697440
4435.807353
4436.283142
4436.434119
4437.183616
4437.304627
4438.993647
4437.959001
4439.552851
4436.280476
4388.768458
4470.643910
4453.240948
4414.181355
4459.292563
4385.245909
4448.354550
4464.220137
4432.109141
4446.148174
4446.502820
4444.545332
4446.873526
4447.840275
4437.691433
4433.948656
4435.109349
4434.922892
4435.010000
4435.214940
4435.302865
4435.517213
4435.728358
4436.012175
4436.285701
4436.719843
4436.928360
4438.296694
4437.367779
4449.354619
4445.072056
4422.756344
4456.149559
4386.729135
4457.724462
4454.721601
4415.911267
4452.683675
4422.388545
4436.478439
4454.728297
4445.017154
4446.569325
4449.020720
4446.859999
4437.526914
4433.901867
4435.079273
4434.877558
4434.965664
4435.130504
4435.210650
4435.401975
4435.589794
4435.721984
4436.080163
4436.220061
4436.630003
4437.260916
4436.000915
4427.722997
4401.355101
4457.947022
4449.000077
4436.903800
4460.248017
4400.096990
4452.991775
4434.582610
4425.906308
4450.772801
4442.209243
4440.255247
4446.956614
4448.825533
4445.749320
4437.325699
4433.833286
4434.972069
4434.782390
4434.843964
4435.037506
4435.055891
4435.258156
4435.321936
4435.557139
4435.639241
4435.841006
4435.932150
4436.330080
4435.940165
4440.731948
4444.286994
4446.596849
4413.652933
4469.278209
4442.743373
4452.831104
4439.005150
4392.388744
4434.067139
4445.666039
4436.852843
4447.904166
4447.197344
4446.151812
4444.692074
4437.074891
4433.797906
4434.862072
4434.728038
4434.749068
4434.931474
4434.909689
4435.129652
4435.106217
4435.336722
4435.256968
4435.519248
4435.284459
4435.591989
4434.612979
4434.337937
4447.072971
4413.586028
4455.910957
4448.282513
4407.688769
4450.998390
4432.739246
4436.674394
4444.540985
4429.989421
4444.888048
4448.523649
4443.669469
4448.225386
4444.686752
4436.767634
4433.747017
4434.672364
4434.629811
4434.591985
4434.815114
4434.749150
4434.949617
4434.898090
4435.052786
4435.004454
4435.061518
4434.845613
4435.030087
4434.460443
4437.680278
4443.764590
4412.110067
4451.850974
4417.588600
4450.769416
4432.128109
4448.789687
4437.223800
4437.942949
4442.240905
4449.533967
4446.168545
4447.397137
4448.197283
4443.616518
4436.510688
4433.661485
4434.565012
4434.543414
4434.484371
4434.724718
4434.594170
4434.826723
4434.705433
4434.870455
4434.721792
4434.777002
4434.460402
4434.365419
4433.381165
4433.139783
4426.749037
4444.158769
4441.436688
4426.659032
4453.674254
4438.085562
4443.185055
4437.021521
4446.275166
4443.448753
4453.760490
4451.226525
4452.593127
4450.064961
4444.671039