# vtk DataFile Version 2.0
mfree iwf
ASCII

DATASET UNSTRUCTURED_GRID
POINTS 11907 float
-0.000000 0.000445 0.000000
-0.000000 0.000450 0.000000
-0.000000 0.000455 0.000000
-0.000000 0.000460 0.000000
-0.000000 0.000465 0.000000
-0.000000 0.000470 0.000000
-0.000000 0.000475 0.000000
-0.000000 0.000480 0.000000
0.000000 0.000485 0.000000
0.000000 0.000490 0.000000
-0.000000 0.000496 0.000000
0.000002 0.000500 0.000000
0.001413 0.001103 0.000000
0.001421 0.001100 0.000000
0.001461 0.001075 0.000000
0.001465 0.001072 0.000000
0.001465 0.001072 0.000000
0.001471 0.001068 0.000000
0.001477 0.001063 0.000000
0.001473 0.001066 0.000000
0.001484 0.001057 0.000000
0.001506 0.001040 0.000000
0.001510 0.001035 0.000000
0.001512 0.001031 0.000000
0.001514 0.001027 0.000000
0.001517 0.001023 0.000000
0.001520 0.001018 0.000000
0.001522 0.001014 0.000000
0.001524 0.001010 0.000000
0.001527 0.001004 0.000000
0.001530 0.000999 0.000000
0.001546 0.000985 0.000000
0.000005 0.000445 0.000000
0.000005 0.000450 0.000000
0.000005 0.000455 0.000000
0.000005 0.000460 0.000000
0.000005 0.000465 0.000000
0.000005 0.000470 0.000000
0.000005 0.000475 0.000000
0.000005 0.000480 0.000000
0.000005 0.000485 0.000000
0.000006 0.000489 0.000000
0.000003 0.000496 0.000000
0.000006 0.000499 0.000000
0.001457 0.001077 0.000000
0.001458 0.001067 0.000000
0.001489 0.001051 0.000000
0.001494 0.001047 0.000000
0.001498 0.001044 0.000000
0.001501 0.001041 0.000000
0.001502 0.001039 0.000000
0.001504 0.001035 0.000000
0.001506 0.001031 0.000000
0.001509 0.001026 0.000000
0.001514 0.001019 0.000000
0.001516 0.001014 0.000000
0.001519 0.001008 0.000000
0.001524 0.001001 0.000000
0.001526 0.000996 0.000000
0.001530 0.000993 0.000000
0.001539 0.000986 0.000000
0.001540 0.000985 0.000000
0.001536 0.000989 0.000000
0.001544 0.000983 0.000000
0.000010 0.000445 0.000000
0.000010 0.000450 0.000000
0.000010 0.000455 0.000000
0.000010 0.000460 0.000000
0.000010 0.000465 0.000000
0.000010 0.000469 0.000000
0.000010 0.000475 0.000000
0.000010 0.000479 0.000000
0.000009 0.000486 0.000000
0.000011 0.000489 0.000000
0.000008 0.000497 0.000000
0.000011 0.000498 0.000000
0.001454 0.001074 0.000000
0.001461 0.001065 0.000000
0.001476 0.001058 0.000000
0.001483 0.001054 0.000000
0.001486 0.001052 0.000000
0.001491 0.001048 0.000000
0.001480 0.001049 0.000000
0.001487 0.001043 0.000000
0.001492 0.001040 0.000000
0.001497 0.001036 0.000000
0.001504 0.001028 0.000000
0.001508 0.001022 0.000000
0.001506 0.001016 0.000000
0.001510 0.001013 0.000000
0.001514 0.001011 0.000000
0.001521 0.001003 0.000000
0.001531 0.000990 0.000000
0.001533 0.000988 0.000000
0.001536 0.000981 0.000000
0.001536 0.000976 0.000000
0.000015 0.000445 0.000000
0.000016 0.000450 0.000000
0.000014 0.000456 0.000000
0.000017 0.000460 0.000000
0.000014 0.000469 0.000000
0.000016 0.000465 0.000000
0.000014 0.000476 0.000000
0.000017 0.000480 0.000000
0.000014 0.000484 0.000000
0.000016 0.000489 0.000000
0.000014 0.000495 0.000000
0.000016 0.000497 0.000000
0.000025 0.000500 0.000000
0.001464 0.001064 0.000000
0.001478 0.001056 0.000000
0.001471 0.001055 0.000000
0.001483 0.001046 0.000000
0.001494 0.001045 0.000000
0.001492 0.001036 0.000000
0.001499 0.001031 0.000000
0.001494 0.001029 0.000000
0.001500 0.001025 0.000000
0.001505 0.001010 0.000000
0.001510 0.001019 0.000000
0.001512 0.001005 0.000000
0.001517 0.001004 0.000000
0.001516 0.000999 0.000000
0.001521 0.000997 0.000000
0.001523 0.000991 0.000000
0.001527 0.000988 0.000000
0.001528 0.000983 0.000000
0.001534 0.000974 0.000000
0.000019 0.000445 0.000000
0.000021 0.000450 0.000000
0.000018 0.000455 0.000000
0.000022 0.000459 0.000000
0.000019 0.000469 0.000000
0.000024 0.000468 0.000000
0.000018 0.000474 0.000000
0.000022 0.000479 0.000000
0.000019 0.000486 0.000000
0.000021 0.000491 0.000000
0.000020 0.000497 0.000000
0.000022 0.000499 0.000000
0.000039 0.000500 0.000000
0.001458 0.001054 0.000000
0.001466 0.001058 0.000000
0.001472 0.001049 0.000000
0.001477 0.001052 0.000000
0.001486 0.001038 0.000000
0.001483 0.001035 0.000000
0.001494 0.001026 0.000000
0.001486 0.001032 0.000000
0.001496 0.001021 0.000000
0.001494 0.001012 0.000000
0.001497 0.001006 0.000000
0.001503 0.001005 0.000000
0.001511 0.000998 0.000000
0.001513 0.000988 0.000000
0.001521 0.000988 0.000000
0.001520 0.000982 0.000000
0.001528 0.000977 0.000000
0.001532 0.000979 0.000000
0.001530 0.000971 0.000000
0.000024 0.000445 0.000000
0.000026 0.000450 0.000000
0.000024 0.000455 0.000000
0.000026 0.000461 0.000000
0.000021 0.000464 0.000000
0.000025 0.000472 0.000000
0.000023 0.000476 0.000000
0.000027 0.000481 0.000000
0.000023 0.000485 0.000000
0.000026 0.000488 0.000000
0.000026 0.000492 0.000000
0.000027 0.000500 0.000000
0.001440 0.001089 0.000000
0.001466 0.001061 0.000000
0.001471 0.001059 0.000000
0.001481 0.001041 0.000000
0.001477 0.001044 0.000000
0.001492 0.001033 0.000000
0.001488 0.001027 0.000000
0.001479 0.001037 0.000000
0.001485 0.001022 0.000000
0.001502 0.001021 0.000000
0.001499 0.001015 0.000000
0.001501 0.001016 0.000000
0.001509 0.001008 0.000000
0.001509 0.001002 0.000000
0.001517 0.000992 0.000000
0.001514 0.000995 0.000000
0.001525 0.000981 0.000000
0.001517 0.000985 0.000000
0.001525 0.000975 0.000000
0.001525 0.000968 0.000000
0.000030 0.000445 0.000000
0.000031 0.000450 0.000000
0.000029 0.000455 0.000000
0.000031 0.000459 0.000000
0.000031 0.000464 0.000000
0.000029 0.000468 0.000000
0.000031 0.000472 0.000000
0.000030 0.000477 0.000000
0.000030 0.000486 0.000000
0.000031 0.000491 0.000000
0.000033 0.000497 0.000000
0.000030 0.000499 0.000000
0.000048 0.000500 0.000000
0.001456 0.001062 0.000000
0.001465 0.001048 0.000000
0.001473 0.001045 0.000000
0.001470 0.001045 0.000000
0.001474 0.001040 0.000000
0.001480 0.001028 0.000000
0.001489 0.001015 0.000000
0.001491 0.001022 0.000000
0.001493 0.001016 0.000000
0.001501 0.001009 0.000000
0.001500 0.000996 0.000000
0.001505 0.001000 0.000000
0.001505 0.000996 0.000000
0.001508 0.000986 0.000000
0.001510 0.000991 0.000000
0.001514 0.000978 0.000000
0.001519 0.000978 0.000000
0.001521 0.000972 0.000000
0.001522 0.000966 0.000000
0.000035 0.000445 0.000000
0.000035 0.000450 0.000000
0.000034 0.000457 0.000000
0.000039 0.000454 0.000000
0.000035 0.000467 0.000000
0.000037 0.000472 0.000000
0.000032 0.000479 0.000000
0.000041 0.000479 0.000000
0.000034 0.000483 0.000000
0.000034 0.000488 0.000000
0.000037 0.000491 0.000000
0.000036 0.000498 0.000000
0.001400 0.001106 0.000000
0.001435 0.001092 0.000000
0.001462 0.001053 0.000000
0.001465 0.001042 0.000000
0.001476 0.001032 0.000000
0.001464 0.001033 0.000000
0.001483 0.001028 0.000000
0.001479 0.001024 0.000000
0.001487 0.001021 0.000000
0.001477 0.001014 0.000000
0.001483 0.001005 0.000000
0.001492 0.000999 0.000000
0.001499 0.001001 0.000000
0.001502 0.000989 0.000000
0.001512 0.000983 0.000000
0.001501 0.000977 0.000000
0.001512 0.000971 0.000000
0.001515 0.000975 0.000000
0.001518 0.000969 0.000000
0.001517 0.000963 0.000000
0.000040 0.000445 0.000000
0.000040 0.000450 0.000000
0.000037 0.000462 0.000000
0.000039 0.000457 0.000000
0.000042 0.000462 0.000000
0.000039 0.000468 0.000000
0.000041 0.000473 0.000000
0.000037 0.000477 0.000000
0.000041 0.000488 0.000000
0.000042 0.000491 0.000000
0.000041 0.000497 0.000000
0.000044 0.000498 0.000000
0.001245 0.001093 0.000000
0.001454 0.001070 0.000000
0.001454 0.001058 0.000000
0.001459 0.001040 0.000000
0.001473 0.001035 0.000000
0.001470 0.001031 0.000000
0.001474 0.001028 0.000000
0.001483 0.001016 0.000000
0.001488 0.001009 0.000000
0.001492 0.001008 0.000000
0.001486 0.001011 0.000000
0.001484 0.000995 0.000000
0.001492 0.000989 0.000000
0.001496 0.000986 0.000000
0.001505 0.000991 0.000000
0.001502 0.000985 0.000000
0.001507 0.000980 0.000000
0.001509 0.000975 0.000000
0.001513 0.000967 0.000000
0.001513 0.000960 0.000000
0.000044 0.000445 0.000000
0.000046 0.000450 0.000000
0.000045 0.000455 0.000000
0.000046 0.000461 0.000000
0.000044 0.000467 0.000000
0.000047 0.000474 0.000000
0.000045 0.000478 0.000000
0.000040 0.000483 0.000000
0.000051 0.000485 0.000000
0.000045 0.000483 0.000000
0.000048 0.000493 0.000000
0.000050 0.000498 0.000000
0.001251 0.001096 0.000000
0.001453 0.001079 0.000000
0.001467 0.001052 0.000000
0.001469 0.001038 0.000000
0.001464 0.001037 0.000000
0.001475 0.001020 0.000000
0.001471 0.001021 0.000000
0.001479 0.001018 0.000000
0.001477 0.001007 0.000000
0.001488 0.001003 0.000000
0.001495 0.001003 0.000000
0.001497 0.000992 0.000000
0.001490 0.000994 0.000000
0.001497 0.000982 0.000000
0.001505 0.000980 0.000000
0.001504 0.000973 0.000000
0.001504 0.000970 0.000000
0.001507 0.000968 0.000000
0.001509 0.000964 0.000000
0.001509 0.000958 0.000000
0.000049 0.000445 0.000000
0.000053 0.000450 0.000000
0.000048 0.000454 0.000000
0.000053 0.000455 0.000000
0.000048 0.000465 0.000000
0.000048 0.000470 0.000000
0.000053 0.000468 0.000000
0.000051 0.000478 0.000000
0.000047 0.000488 0.000000
0.000052 0.000491 0.000000
0.000057 0.000492 0.000000
0.000053 0.000498 0.000000
0.001343 0.001113 0.000000
0.001443 0.001078 0.000000
0.001451 0.001066 0.000000
0.001459 0.001043 0.000000
0.001466 0.001028 0.000000
0.001470 0.001025 0.000000
0.001463 0.001023 0.000000
0.001468 0.001017 0.000000
0.001472 0.001007 0.000000
0.001481 0.001011 0.000000
0.001478 0.001005 0.000000
0.001486 0.001000 0.000000
0.001483 0.000987 0.000000
0.001495 0.000996 0.000000
0.001491 0.000979 0.000000
0.001491 0.000972 0.000000
0.001496 0.000980 0.000000
0.001500 0.000967 0.000000
0.001505 0.000962 0.000000
0.001505 0.000956 0.000000
0.000053 0.000445 0.000000
0.000058 0.000450 0.000000
0.000055 0.000462 0.000000
0.000050 0.000459 0.000000
0.000060 0.000466 0.000000
0.000053 0.000473 0.000000
0.000057 0.000476 0.000000
0.000057 0.000480 0.000000
0.000052 0.000483 0.000000
0.000057 0.000486 0.000000
0.000056 0.000497 0.000000
0.000059 0.000496 0.000000
0.001366 0.001111 0.000000
0.001452 0.001081 0.000000
[...]
POINT_DATA 11907
SCALARS density float 1
LOOKUP_TABLE default
4427.892945
4429.807898
4425.026525
4428.997918
4430.863078
4427.215291
4437.016513
4428.131023
4434.111288
4422.464819
4429.174263
4404.964467
4430.273767
4422.880943
4416.172845
4442.161150
4438.812150
4439.190452
4451.427577
4454.903241
4427.114103
4408.470555
4400.440350
4448.083985
4425.763555
4433.511470
4450.078732
4424.320765
4435.838038
4450.365692
4427.491329
4402.548051
4431.497658
4432.477073
4430.351733
4426.923790
4433.088954
4421.082852
4426.237287
4419.993268
4415.990909
4425.061882
4450.060268
4408.424954
4415.798188
4423.390187
4427.090419
4414.223418
4427.389735
4444.031457
4455.871691
4475.424013
4437.801749
4412.537960
4420.299819
4399.879743
4432.250253
4392.984793
4445.633701
4456.450302
4430.467341
4431.815161
4418.149356
4398.971796
4420.722332
4426.195296
4433.200023
4420.219984
4431.102379
4423.383485
4452.992378
4401.008414
4474.402075
4382.655258
4449.247365
4403.830129
4468.917162
4441.472493
4432.740620
4399.625576
4417.197749
4416.719515
4471.837873
4435.234965
4423.308240
4359.034512
4425.058822
4443.916384
4390.962854
4450.938500
4423.794363
4379.673998
4415.065996
4421.945020
4443.871597
4412.566965
4425.487128
4438.504359
4444.841102
4420.163931
4420.512786
4449.576370
4453.038559
4385.539001
4462.643686
4389.529500
4508.740300
4405.047832
4435.415386
4390.972805
4409.950707
4472.147349
4446.655036
4447.942746
4446.724529
4374.992995
4451.639817
4432.486537
4429.912950
4436.896340
4393.273618
4485.908944
4432.611520
4474.620049
4418.590754
4379.111793
4499.479085
4435.511935
4436.026558
4420.061036
4440.387327
4428.491753
4404.807591
4439.413717
4432.966013
4440.107943
4478.952969
4372.714815
4464.284085
4434.315867
4419.251413
4435.449663
4467.119246
4384.393336
4463.026546
4411.439593
4444.798160
4436.519545
4419.143652
4381.256357
4411.908647
4437.026720
4424.965730
4425.205669
4461.383552
4485.795774
4403.346443
4408.493528
4391.866373
4426.131274
4431.630955
4432.245316
4436.695678
4416.135512
4438.083244
4420.824773
4454.559999
4378.106631
4422.018468
4462.246745
4419.705534
4424.366253
4436.601869
4431.729253
4362.226678
4448.773679
4398.467645
4474.226536
4358.631851
4454.003849
4442.594922
4446.280984
4457.112749
4447.581869
4451.219253
4426.602057
4389.210305
4421.554262
4420.449859
4418.598479
4465.253921
4423.807793
4424.152523
4431.627083
4417.461271
4436.052773
4428.084358
4446.973350
4391.596265
4449.436191
4450.483155
4414.342937
4450.618122
4419.089427
4413.882859
4445.874946
4463.773241
4463.539908
4415.307128
4423.541477
4442.106393
4392.455502
4451.182321
4445.317481
4409.651403
4428.485880
4466.890313
4396.023492
4404.395213
4435.386224
4452.213635
4419.654971
4398.403922
4449.348940
4431.114956
4428.973116
4438.436737
4419.219592
4433.195844
4438.675393
4450.622682
4430.800045
4396.537121
4428.558285
4417.518323
4444.163325
4414.593639
4421.966215
4386.910624
4416.615156
4412.235444
4459.517533
4478.714730
4400.864900
4453.204354
4431.519768
4391.471128
4426.551803
4396.855905
4452.338956
4408.503328
4390.305156
4434.895071
4431.918337
4414.021858
4421.930159
4431.123561
4431.900504
4414.741745
4445.495262
4416.188863
4434.640365
4427.950792
4422.581025
4449.946958
4429.985850
4434.586362
4420.422268
4436.510811
4456.874000
4392.840511
4441.475990
4441.615923
4454.448547
4436.358766
4395.811357
4438.789302
4416.427054
4471.640757
4417.394898
4424.272914
4408.129435
4425.515575
4435.303222
4461.420289
4376.546870
4449.542917
4424.904918
4424.882420
4422.211394
4419.913908
4462.469684
4418.853425
4437.549356
4436.901707
4436.930755
4457.466429
4413.132796
4477.192782
4432.392818
4435.208720
4438.987559
4401.813352
4440.700255
4398.568389
4431.778800
4441.825849
4472.105927
4442.060153
4422.952926
4441.525224
4431.853932
4420.711137
4449.704223
4435.621634
4454.473404
4452.384395
4421.793934
4415.503515
4445.459452
4428.418465
4405.642697
4461.358566
4427.091446
4422.762400
4452.219172
4401.855092
4381.078945
4383.703511
4417.605292
4517.462871
4412.133147
4438.803957
4434.438751
4403.921680
4445.802855
4364.054818
4433.636031
4440.714228
4402.830540
4408.720545
4421.622654
4472.874415
4454.299053
4405.300201
4446.822235
4425.188327
4433.461840
4450.006020
4417.085817
4428.204933
4424.284140
4439.200160
4430.574416
4472.247122
4402.539064
4412.582721
4448.378228
4421.414002
4419.858222
4477.728310
4353.732456
4418.723471
4399.625857
4434.766973
4428.004692
4441.952242
4418.541866
4429.418522
4470.281546
4402.491601
4424.328342
4449.152530
4409.191023
4421.916112
4421.615263
4457.900204
4431.313969
4459.469040
4399.785702
4453.174464
4417.679737
4436.658264
4422.882607
4418.226026
4405.876663
4451.094575
4430.974336
4392.407303
4432.087164
4437.759110
4394.408824
4441.394377
4429.008492
4439.586454
4433.686412
4421.793958
4436.791787
4426.953714
4374.180698
4417.904641
4444.430111
4443.856673
4467.587891
4443.530553
4455.478037
4437.858114
4437.077065
4429.332904
4460.950275
4420.758947
4419.200018
4430.992726
4402.866390
4444.741435
4434.027064
4442.136142
4442.986647
4427.945994
4442.148458
4446.633317
4417.548765
4403.231262
4450.982255
4469.188544
4419.118392
4427.672831
4436.658879
4416.407721
4425.882323
4401.986678
4364.528998
4412.391769
4397.898170
4432.661221
4389.287140
4442.299798
4426.619116
4470.933843
4428.671760
4429.020130
4457.556971
4393.248840
4406.093172
4440.668110
4450.366121
4416.381626
4425.161964
4417.584322
4435.984918
4434.681924
4454.928563
4406.523868
4423.598369
4401.863177
4434.206739
4419.939274
4437.576225
4434.123275
4453.038839
4424.368101
4439.253892
4422.838388
4466.480665
4443.065939
4453.438972
4417.038731
4476.769943
4391.909745
4414.252056
4398.702538
4415.773573
4451.642218
4447.673795
4411.514367
4417.359902
4441.298405
4419.961130
4427.238627
4436.115969
4436.435704
4436.331001
4419.650301
4424.425619
4414.568803
4447.069831
4453.240032
4446.253825
4441.501476
4395.574423
4384.605779
4448.453602
4426.119409
4423.955909
4432.476629
4453.141545
4437.686244
4415.017479
4393.545602
4450.940501
4376.984493
4400.676279
4424.308805
4434.360303
4402.518578
4431.844193
4419.581498
4431.961944
4445.076871
4404.877618
4449.641490
4412.755993
4435.449427
4431.481167
4440.761709
4408.447645
4438.055914
4415.063983
4410.750539
4450.867534
4417.157465
4371.840308
4416.379402
4428.309824
4422.219210
4422.825241
4433.534590
4441.390202
4470.324278
4421.754655
4418.065572
4451.252199
4433.941865
4445.288725
4391.316985
4469.320788
4416.454282
4433.230116
4435.990036
4428.815636
4410.325486
4440.788620
4435.017593
4447.028816
4431.937524
4427.681183
4421.169858
4417.550961
4440.320809
4427.611873
4430.819066
4436.527472
4393.842900
4505.781900
4438.650689
4457.786898
4424.667520
4430.192316
4443.203897
4436.136218
4468.561927
4431.967292
4510.714287
4485.583123
4425.530992
4442.719579
4419.075459
4417.230551
4445.159127
4407.105460
4419.733721
4433.777958
4456.420843
4438.190465
4413.233297
4437.260878
4418.223297
4425.290031
4452.285570
4458.778205
4424.993223
4443.409757
4443.412373
4453.386726
4449.774928
4427.440741
4393.030736
4419.881007
4417.832263
4428.496997
4426.426266
4443.768998
4424.669804
4438.906809
4433.280182
4398.880591
4431.236747
4442.904263
4464.908779
4376.717822
4461.439173
4423.994239
4417.997051
4428.724806
4397.935123
4420.109926
4408.882774
4434.212305
4442.370106
4418.287985
4417.217778
4431.831396
4428.232634
4412.072733
4443.641430
4426.157945
4438.581115
4428.270471
4431.699319
4427.476429
4409.396142
4440.935181
4443.162750
4463.188362
4428.050183
4459.642475
4448.995005
4420.861796
4477.329285
4426.218704
4402.504665
4401.968328
4402.629973
4396.069938
4445.447442
4453.921477
4428.479270
4449.266322
4441.485662
4435.253760
4431.478526
4430.125623
4441.201690
4411.176194
4396.989729
4447.645938
4407.534288
4403.216109
4441.998789
4459.996126
4418.323902
4497.895465
4426.082147
4413.076449
4397.596730
4473.759294
4439.845338
4436.103432
4343.603074
4429.858338
4405.032190
4448.181729
4477.784464
4437.799607
4458.322562
4461.592129
4426.340602
4382.004582
4438.538838
4420.346958
4405.573705
4431.194868
4436.302883
4418.558294
4430.748522
4427.414028
4420.000168
4406.017020
4427.788395
4452.926246
4476.753201
4365.440610
4437.810548
4430.746230
4441.164836
4421.150072
4437.154407
4428.648997
4445.206614
4442.950759
4454.538617
4434.304026
4430.104981
4340.894211
4470.653621
4446.815752
4439.599603
4445.148130
4414.920126
4459.052146
4441.596307
4430.566687
4443.703588
4430.820675
4412.089834
4438.350129
4423.173630
4429.167958
4446.803616
4432.424984
4436.962272
4478.467436
4416.029046
4415.323186
4383.824976
4467.319234
4424.119841
4462.088380
4424.516476
4445.112314
4429.549366
4426.056350
4429.104294
4433.813699
4440.707563
4398.737123
4357.775637
4481.973159
4432.819420
4388.694708
4455.705999
4446.069887
4452.091880
4423.558804
4437.259146
4416.510985
4446.819018
4432.019499
4413.610570
4427.742273
4426.548949
4434.974275
4413.413976
4412.891299
4405.601437
4446.448649
4443.596885
4433.294111
4444.256633
4427.375922
4416.159454
4409.076771
4357.909651
4391.138882
4419.675821
4402.069489
4367.874199
4447.222148
4424.504894
4377.289444
4441.646617
4443.096131
4409.765076
4398.644089
4407.461649
4463.798190
4437.755250
4431.630725
4428.692697
4430.447345
4430.733429
4430.950097
4430.815396
4430.289843
4429.882571
4429.453388
4429.593666
4430.195372
4431.341277
4431.802399
4431.479726
4431.100875
4430.579403
4429.484204
4430.219058
4429.206812
4428.813513
4429.458542
4430.604446
4432.078707
4433.069225
4433.362906
4432.005034
4429.649275
4428.271079
4428.940980
4430.386244
4430.783511
4429.608645
4430.113429
4431.291128
4431.997068
4431.670195
4430.255066
4428.893805
4427.564771
4427.455232
4428.684614
4431.792322
4433.262115
4431.821622
4430.076450
4428.944772
4430.214311
4430.022016
4428.879065
4428.257760
4428.631428
4430.258958
4431.630253
4433.381525
4433.345946
4432.240767
4428.868994
4426.925336
4427.426960
4428.835259
4428.945810
4429.994990
4429.805042
4431.304431
4431.965615
4431.604951
4430.061937
4428.588070
4426.810956
4426.831715
4427.937387
4431.227458
4433.052329
4432.015390
4429.494290
4429.740725
4430.085726
4429.715853
4429.054643
4427.458224
4428.883601
4429.385346
4431.850365
4432.428422
4433.795878
4430.914646
4429.596166
4425.674282
4428.675660
4428.673185
4429.996899
4429.772777
4429.666938
4431.194877
4431.762404
4431.466257
4429.733355
4428.337885
4426.445357
4426.464280
4427.790000
4430.566570
4432.931440
4431.450872
4429.098453
4429.734031
4429.869522
4429.736842
4428.692142
4427.605754
4428.204947
4429.679103
4431.009890
4432.796237
4432.839768
4431.365699
4428.736085
4425.787979
4427.416739
4428.434850
4428.785988
4429.238190
4429.702470
4430.855789
4431.576514
4431.398479
4429.366577
4428.298703
4425.980696
4426.483811
4427.233844
4430.546917
4432.679621
4431.490128
4429.962135
4430.372797
4429.686394
4429.515979
4428.627846
4427.251487
4428.219642
4429.203282
4431.088907
4432.204503
4432.828712
4430.744251
4428.865851
4425.371242
4428.107362
4427.942841
4430.241307
4429.121183
4429.607433
4430.717099
4431.512888
4430.908135
4429.543701
4427.583339
4426.242138
4426.068871
4427.080478
4430.105260
4432.408358
4430.815993
4427.974201
4426.770770
4429.411002
4429.670482
4428.103468
4427.291244
4427.769787
4429.084236
4430.741064
4432.219564
4432.196342
4431.051597
4427.895662
4425.739216
4426.343742
4427.611134
4428.549928
4428.955137
4429.428665
4430.564570
4431.317599
4430.622777
4429.377891
4427.426494
4425.935375
4426.169805
4426.679401
4430.022759
4432.451467
4431.479726
4429.456345
4428.731140
4456.649518
4437.212418
4400.807165
4422.457465
4452.635128
4457.297587
4430.852810
4404.523047
4404.710578
4465.247473
4465.261038
4410.675343
4465.530579
4480.330478
4455.892428
4426.434297
4429.125094
4429.350060
4428.249663
4426.583477
4428.008363
4428.498405
4430.792699
4431.807145
4432.039845
4430.393660
4428.764093
4425.029585
4428.338712
4429.460200
4432.806259
4434.768135
4401.294423
4430.461887
4418.187763
4414.692456
4439.409634
4433.550063
4446.182665
4390.861104
4385.704903
4437.512003
4420.718682
4435.900994
4345.025000
4482.031708
4409.156062
4428.531366
4429.253505
4430.368265
4430.952330
4430.658538
4428.823462
4427.724819
4425.272787
4426.520694
4426.455265
4429.356556
4432.897345
4430.897035
4429.326708
4431.200664
4434.549037
4408.754905
4440.195743
4433.048928
4427.486972
4450.120290
4413.079522
4398.838922
4410.946417
4437.116725
4461.451664
4418.806158
4436.629153
4459.872653
4418.818036
4411.806885
4428.898599
4429.398447
4427.822085
4426.728615
4427.390164
4428.995388
4429.880684
4432.314903
4430.680251
4430.712939
4428.503152
4424.162903
4427.638702
4427.187328
4427.662684
4426.674865
4401.722460
4414.787018
4403.208385
4395.006991
4450.464507
4443.674282
4403.137265
4419.885257
4433.199530
4427.758229
4440.175045
4413.353309
4407.859775
4435.442660
4452.367090
4428.418440
4429.382710
4429.914022
4431.039917
4430.317746
4428.949884
4427.379867
4425.233058
4426.318618
4426.052435
4428.722341
4432.938487
4429.062993
4427.855549
4427.720684
4438.608159
4437.883513
4428.685030
4458.739762
4435.591883
4437.372222
4439.687421
4490.410744
4408.355221
4447.622930
4391.951207
4440.798511
4450.558973
4417.363819
4433.147980
4418.843423
4428.458118
4429.208851
4427.781553
4426.560902
4427.351235
4428.860603
4429.966094
4431.894222
4430.467783
4430.360289
4428.205858
4423.949317
4427.364381
4426.579161
4426.507843
4428.256432
4420.131781
4420.709600
4382.092931
4481.500627
4400.491455
4423.161738
4452.438236
4464.062128
4387.752521
4404.617246
4448.109771
4452.424917
4425.904370
4451.528672
4419.272283
4428.488571
4429.405644
4429.702003
4430.984827
4430.088989
4429.095401
4426.924296
4425.730077
4426.088945
4426.054760
4428.494248
4432.817199
4428.917774
4428.571332
4428.219835
4425.546295
4398.072734
4451.971412
4445.829600
4340.527337
4440.944105
4419.741132
4422.511242
4440.138754
4440.670905
4415.718082
4447.683705
4395.637305
4462.111786
4460.162909
4422.418785
4428.233308
4429.214489
4427.458313
4426.669140
4426.958237
4428.791447
4429.790155
4431.826310
4430.236593
4430.506395
4428.007052
4424.474105
4427.078668
4427.346749
4425.985905
4430.664671
4405.067733
4377.208711
4371.483031
4383.733915
4482.569339
4444.439137
4422.312833
4423.434936
4427.990118
4437.075721
4403.741653
4420.644948
4395.725772
4469.435797
4407.792714
4428.256259
4429.176017
4429.700639
4430.528145
4430.267186
4428.532555
4427.142441
4425.653055
4426.672452
4425.755172
4428.735113
4432.864447
4429.814339
4428.947040
4428.665012
4444.116390
4451.655038
4391.043637
4407.802375
4442.866720
4435.464674
4434.241591
4428.266817
4478.541584
4466.407455
4398.017896
4417.819181
4455.380802
4394.202850
4427.545095
4400.763801
4428.202727
4428.835379
4427.661875
4426.328522
4427.117656
4428.377046
4429.829713
4431.469812
4430.364618
4430.128423
4428.340993
4424.505803
4427.785833
4426.850820
4428.584996
4443.395905
4431.113529
4429.487440
4436.092152
4381.931077
4420.278011
4427.701054
4443.553867
4382.585400
4425.519353
4442.956440
4478.935236
4381.309251
4407.265954
4430.829939
4444.347016
4428.118873
4429.094761
4429.472103
4430.430957
4430.196054
4428.300459
4427.111796
4425.921271
4426.871532
4425.558960
4428.408168
4432.888989
4430.017338
4429.128536
4427.878126
4418.591836
4432.100130
4421.449687
4443.334945
4439.663346
4432.648759
4444.843266
4472.697282
4417.952012
4430.651980
4395.922368
4420.090028
4455.242873
4394.225643
4465.027156
4409.487554
4428.050053
4428.959616
4427.364689
4426.735880
4426.554239
4428.847375
4429.154048
4431.557325
4429.988479
4430.118876
4427.498072
4424.668680
4425.863407
4426.853731
4425.061243
4438.285246
4482.784254
4435.639797
4387.004662
4426.309563
4421.490149
4446.189939
4415.216271
4476.210897
4456.598866
4410.709419
4422.324972
4426.792302
4420.585236
4423.706592
4411.295498
4427.974018
4429.330329
4428.958434
4430.734919
4430.018882
4428.343921
4426.967147
4426.496885
4426.498905
4425.626001
4427.612483
4432.331678
4428.469656
4427.714916
4425.768899
4419.537840
4443.927987
4438.629712
4436.607664
4396.110793
4440.502048
4445.419948
4431.966252
4439.956743
4440.420342
4413.969987
4412.311672
4444.895624
4374.863004
4469.909651
4442.684348
4427.836271
4429.099600
4427.217319
4426.906561
4426.368077
4429.079916
4428.919967
4431.449144
4429.665530
4429.918984
4427.146034
4424.737478
4425.694771
4425.461918
4426.793297
4408.709847
4443.902227
4408.572285
4441.257555
4443.229790
4434.624677
4434.389936
4427.321899
4419.730609
4438.996958
4435.342311
4430.343825
4386.602327
4426.097983
4385.930924
4445.476277
4427.828178
4429.369421
4428.813770
4430.890912
4429.704979
4428.339940
4426.804459
4427.018234
4426.428149
4425.895338
4427.364065
4431.801871
4428.472577
4427.187956
4425.470063
4427.543692
4423.237799
4411.001562
4436.243979
4409.309894
4409.774507
4425.619447
4443.447261
4429.920005
4439.172199
4450.782679
4434.568697
4453.934181
4455.527950
4420.432811
4400.670671
4428.054636
4428.966649
4427.442003
4426.652444
4426.752623
4428.456405
4429.094163
4431.570995
4429.535719
4429.892852
4427.325654
4425.256046
4425.476062
4425.716478
4424.539990
4430.005776
4423.528713
4429.450041
4416.236009
4417.501188
4442.832455
4420.322444
4427.851611
4415.072145
4449.488551
4473.856183
4416.941244
4463.982548
4432.845559
4474.755032
4425.595514
4427.988875
4429.117154
4429.126917
4430.563509
4429.672699
4428.192335
4427.135463
4426.809164
4427.455822
4425.757871
4427.154599
4432.084189
4429.071524
4427.357584
4426.362189
4429.452193
4414.177021
4445.805156
4435.377810
4388.501055
4433.178480
4452.083841
4433.790000
4454.682250
4418.333845
4480.527057
4435.111247
4380.062403
4439.092099
4444.906295
4421.838509
4428.371027
4429.023913
4427.479971
4426.810285
4426.675856
4428.395809
4428.989355
4431.565040
4429.812018
4429.400795
4428.100683
4424.986960
4426.483586
4425.172533
4425.882437
4441.720091
4447.203617
4436.925173
4453.495080
4388.681039
4417.691260
4444.453864
4384.153633
4453.276572
4439.323987
4443.034426
4446.125910
4449.600096
4455.673621
4395.093859
4408.346098
4428.148518
4428.864844
4429.304758
4430.148308
4430.288944
4427.490594
4427.821994
4426.740871
4427.977715
4425.425793
4427.415581
4432.529432
4428.050834
4426.801694
4426.570751
4445.673713
4447.333300
4410.708956
4463.833811
4389.540351
4436.265275
4438.212761
4417.171137
4470.342007
4446.172268
4462.360147
4397.260824
4403.799297
4460.838205
4413.097435
4426.569100
4428.227508
4429.385355
4427.360377
4427.189279
4426.298502
4429.401075
4428.528126
4431.429317
4430.531753
4429.609354
4427.493561
4425.893263
4425.409161
4424.912286
4424.735043
4435.221676
4437.458956
4410.738186
4374.285520
4430.682820
4443.391724
4440.346651
4426.129945
4388.128161
4446.827540
4402.742601
4416.729420
4433.810476
4376.757224
4417.457537
4447.520560
4428.170020
4429.356444
4428.414073
4431.235458
4429.820611
4428.459626
4427.594926
4428.604275
4426.911333
4425.819521
4428.328807
4431.202715
4427.986273
4427.579552
4426.289645
4418.237909
4399.958739
4412.970727
4425.810701
4454.066894
4424.065899
4435.251081
4495.641570
4404.776282
4407.822986
4429.248703
4413.317689
4487.474699
4412.501162
4556.015816
4414.716513
4428.278197
4429.216383
4427.976982
4426.874686
4427.089022
4428.914235
4428.515350
4431.680026
4430.438996
4429.186432
4427.503088
4427.196943
4426.408788
4426.082669
4423.371126
4446.080482
4423.094563
4446.626269
4431.715458
4457.877954
4463.136007
4438.083356
4456.750096
4474.770732
4428.164570
4450.049340
4440.842558
4451.667092
4452.119549
4279.042625
4429.311921
4428.575901
4429.507847
4428.527884
4431.085352
4429.528246
4428.249205
4427.206561
4428.856806
4426.565887
4426.997096
4428.284029
4430.594014
4427.220904
4427.675967
4424.956012
4424.935451
4386.333319
4381.497271
4407.650997
4444.649592
4412.380168
4436.670948
4441.192522
4436.836592
4433.835783
4396.749687
4445.451655
4442.853117
4412.239887
4387.449480
4405.851104