# vtk DataFile Version 2.0
mfree iwf
ASCII

DATASET UNSTRUCTURED_GRID
POINTS 10047 float
0.000000 0.000445 0.000000
0.000000 0.000450 0.000000
0.000000 0.000455 0.000000
0.000000 0.000460 0.000000
0.000000 0.000465 0.000000
0.000000 0.000470 0.000000
0.000000 0.000475 0.000000
0.000000 0.000480 0.000000
0.000000 0.000485 0.000000
0.000000 0.000490 0.000000
-0.000000 0.000496 0.000000
0.000002 0.000500 0.000000
0.000515 0.000819 0.000000
0.000522 0.000824 0.000000
0.000564 0.000844 0.000000
0.000570 0.000845 0.000000
0.000570 0.000845 0.000000
0.000576 0.000848 0.000000
0.000583 0.000850 0.000000
0.000579 0.000849 0.000000
0.000593 0.000854 0.000000
0.000618 0.000862 0.000000
0.000625 0.000862 0.000000
0.000629 0.000862 0.000000
0.000634 0.000862 0.000000
0.000639 0.000861 0.000000
0.000644 0.000861 0.000000
0.000650 0.000861 0.000000
0.000653 0.000860 0.000000
0.000660 0.000860 0.000000
0.000666 0.000860 0.000000
0.000691 0.000861 0.000000
0.000005 0.000445 0.000000
0.000005 0.000450 0.000000
0.000005 0.000455 0.000000
0.000005 0.000460 0.000000
0.000005 0.000465 0.000000
0.000005 0.000470 0.000000
0.000005 0.000475 0.000000
0.000005 0.000480 0.000000
0.000005 0.000485 0.000000
0.000006 0.000490 0.000000
0.000004 0.000496 0.000000
0.000006 0.000499 0.000000
0.000559 0.000841 0.000000
0.000571 0.000838 0.000000
0.000599 0.000854 0.000000
0.000606 0.000856 0.000000
0.000611 0.000857 0.000000
0.000615 0.000858 0.000000
0.000618 0.000858 0.000000
0.000622 0.000857 0.000000
0.000628 0.000857 0.000000
0.000634 0.000857 0.000000
0.000640 0.000856 0.000000
0.000647 0.000857 0.000000
0.000653 0.000855 0.000000
0.000662 0.000856 0.000000
0.000666 0.000855 0.000000
0.000672 0.000855 0.000000
0.000681 0.000858 0.000000
0.000684 0.000858 0.000000
0.000678 0.000858 0.000000
0.000689 0.000859 0.000000
0.000010 0.000445 0.000000
0.000010 0.000450 0.000000
0.000010 0.000455 0.000000
0.000010 0.000460 0.000000
0.000010 0.000465 0.000000
0.000011 0.000470 0.000000
0.000010 0.000475 0.000000
0.000011 0.000480 0.000000
0.000009 0.000486 0.000000
0.000012 0.000490 0.000000
0.000009 0.000497 0.000000
0.000011 0.000498 0.000000
0.000563 0.000838 0.000000
0.000574 0.000838 0.000000
0.000588 0.000847 0.000000
0.000594 0.000850 0.000000
0.000598 0.000852 0.000000
0.000603 0.000854 0.000000
0.000602 0.000846 0.000000
0.000610 0.000850 0.000000
0.000614 0.000850 0.000000
0.000621 0.000853 0.000000
0.000629 0.000853 0.000000
0.000635 0.000854 0.000000
0.000637 0.000850 0.000000
0.000643 0.000849 0.000000
0.000649 0.000853 0.000000
0.000659 0.000854 0.000000
0.000675 0.000855 0.000000
0.000677 0.000855 0.000000
0.000686 0.000855 0.000000
0.000691 0.000851 0.000000
0.000015 0.000445 0.000000
0.000015 0.000450 0.000000
0.000015 0.000455 0.000000
0.000016 0.000460 0.000000
0.000015 0.000465 0.000000
0.000016 0.000470 0.000000
0.000014 0.000476 0.000000
0.000016 0.000480 0.000000
0.000014 0.000485 0.000000
0.000016 0.000489 0.000000
0.000014 0.000495 0.000000
0.000017 0.000498 0.000000
0.000025 0.000500 0.000000
0.000577 0.000841 0.000000
0.000590 0.000846 0.000000
0.000592 0.000842 0.000000
0.000604 0.000848 0.000000
0.000608 0.000855 0.000000
0.000618 0.000850 0.000000
0.000622 0.000848 0.000000
0.000625 0.000843 0.000000
0.000631 0.000850 0.000000
0.000645 0.000843 0.000000
0.000643 0.000853 0.000000
0.000653 0.000847 0.000000
0.000655 0.000851 0.000000
0.000661 0.000849 0.000000
0.000664 0.000850 0.000000
0.000670 0.000849 0.000000
0.000677 0.000849 0.000000
0.000681 0.000850 0.000000
0.000691 0.000848 0.000000
0.000020 0.000445 0.000000
0.000021 0.000450 0.000000
0.000019 0.000456 0.000000
0.000022 0.000459 0.000000
0.000018 0.000466 0.000000
0.000023 0.000468 0.000000
0.000019 0.000474 0.000000
0.000022 0.000479 0.000000
0.000019 0.000486 0.000000
0.000021 0.000491 0.000000
0.000021 0.000497 0.000000
0.000022 0.000499 0.000000
0.000039 0.000500 0.000000
0.000581 0.000833 0.000000
0.000584 0.000839 0.000000
0.000591 0.000838 0.000000
0.000595 0.000846 0.000000
0.000606 0.000842 0.000000
0.000614 0.000839 0.000000
0.000625 0.000848 0.000000
0.000616 0.000844 0.000000
0.000633 0.000840 0.000000
0.000638 0.000837 0.000000
0.000644 0.000837 0.000000
0.000648 0.000843 0.000000
0.000657 0.000844 0.000000
0.000662 0.000843 0.000000
0.000672 0.000844 0.000000
0.000674 0.000845 0.000000
0.000683 0.000845 0.000000
0.000685 0.000849 0.000000
0.000691 0.000844 0.000000
0.000025 0.000445 0.000000
0.000026 0.000450 0.000000
0.000025 0.000455 0.000000
0.000026 0.000461 0.000000
0.000023 0.000465 0.000000
0.000026 0.000472 0.000000
0.000023 0.000476 0.000000
0.000027 0.000481 0.000000
0.000024 0.000485 0.000000
0.000026 0.000488 0.000000
0.000026 0.000492 0.000000
0.000027 0.000500 0.000000
0.000540 0.000833 0.000000
0.000581 0.000841 0.000000
0.000584 0.000843 0.000000
0.000600 0.000842 0.000000
0.000602 0.000838 0.000000
0.000612 0.000845 0.000000
0.000620 0.000841 0.000000
0.000610 0.000841 0.000000
0.000624 0.000838 0.000000
0.000630 0.000845 0.000000
0.000639 0.000846 0.000000
0.000635 0.000844 0.000000
0.000648 0.000848 0.000000
0.000653 0.000841 0.000000
0.000667 0.000845 0.000000
0.000665 0.000839 0.000000
0.000679 0.000843 0.000000
0.000673 0.000838 0.000000
0.000685 0.000841 0.000000
0.000690 0.000839 0.000000
0.000030 0.000445 0.000000
0.000031 0.000450 0.000000
0.000030 0.000456 0.000000
0.000030 0.000460 0.000000
0.000032 0.000464 0.000000
0.000028 0.000469 0.000000
0.000032 0.000472 0.000000
0.000030 0.000477 0.000000
0.000031 0.000486 0.000000
0.000031 0.000492 0.000000
0.000033 0.000497 0.000000
0.000031 0.000499 0.000000
0.000049 0.000500 0.000000
0.000573 0.000831 0.000000
0.000592 0.000834 0.000000
0.000597 0.000838 0.000000
0.000598 0.000834 0.000000
0.000607 0.000836 0.000000
0.000618 0.000835 0.000000
0.000629 0.000839 0.000000
0.000622 0.000836 0.000000
0.000632 0.000835 0.000000
0.000641 0.000841 0.000000
0.000655 0.000835 0.000000
0.000650 0.000837 0.000000
0.000657 0.000839 0.000000
0.000661 0.000834 0.000000
0.000666 0.000838 0.000000
0.000676 0.000835 0.000000
0.000679 0.000838 0.000000
0.000685 0.000837 0.000000
0.000690 0.000835 0.000000
0.000035 0.000445 0.000000
0.000035 0.000450 0.000000
0.000034 0.000455 0.000000
0.000038 0.000455 0.000000
0.000034 0.000467 0.000000
0.000037 0.000473 0.000000
0.000032 0.000479 0.000000
0.000042 0.000479 0.000000
0.000035 0.000483 0.000000
0.000034 0.000488 0.000000
0.000038 0.000491 0.000000
0.000036 0.000498 0.000000
0.000506 0.000809 0.000000
0.000537 0.000831 0.000000
0.000585 0.000830 0.000000
0.000594 0.000830 0.000000
0.000607 0.000832 0.000000
0.000606 0.000827 0.000000
0.000613 0.000835 0.000000
0.000619 0.000829 0.000000
0.000629 0.000832 0.000000
0.000628 0.000827 0.000000
0.000638 0.000826 0.000000
0.000647 0.000834 0.000000
0.000648 0.000830 0.000000
0.000662 0.000829 0.000000
0.000670 0.000834 0.000000
0.000670 0.000824 0.000000
0.000676 0.000833 0.000000
0.000681 0.000831 0.000000
0.000685 0.000832 0.000000
0.000690 0.000829 0.000000
0.000040 0.000445 0.000000
0.000041 0.000450 0.000000
0.000036 0.000462 0.000000
0.000040 0.000458 0.000000
0.000041 0.000463 0.000000
0.000040 0.000468 0.000000
0.000041 0.000472 0.000000
0.000037 0.000477 0.000000
0.000041 0.000488 0.000000
0.000042 0.000491 0.000000
0.000041 0.000497 0.000000
0.000045 0.000498 0.000000
0.000433 0.000669 0.000000
0.000567 0.000836 0.000000
0.000578 0.000829 0.000000
0.000594 0.000823 0.000000
0.000603 0.000832 0.000000
0.000614 0.000831 0.000000
0.000610 0.000827 0.000000
0.000624 0.000831 0.000000
0.000635 0.000831 0.000000
0.000639 0.000832 0.000000
0.000633 0.000826 0.000000
0.000647 0.000825 0.000000
0.000652 0.000828 0.000000
0.000660 0.000825 0.000000
0.000657 0.000832 0.000000
0.000666 0.000831 0.000000
0.000670 0.000829 0.000000
0.000678 0.000826 0.000000
0.000685 0.000827 0.000000
0.000690 0.000825 0.000000
0.000044 0.000445 0.000000
0.000047 0.000450 0.000000
0.000044 0.000454 0.000000
0.000046 0.000461 0.000000
0.000044 0.000467 0.000000
0.000046 0.000474 0.000000
0.000046 0.000479 0.000000
0.000040 0.000483 0.000000
0.000052 0.000486 0.000000
0.000045 0.000483 0.000000
0.000048 0.000493 0.000000
0.000050 0.000498 0.000000
0.000434 0.000678 0.000000
0.000558 0.000839 0.000000
0.000587 0.000835 0.000000
0.000600 0.000828 0.000000
0.000600 0.000824 0.000000
0.000615 0.000826 0.000000
0.000620 0.000824 0.000000
0.000625 0.000826 0.000000
0.000632 0.000821 0.000000
0.000641 0.000824 0.000000
0.000643 0.000829 0.000000
0.000654 0.000826 0.000000
0.000645 0.000822 0.000000
0.000659 0.000820 0.000000
0.000666 0.000825 0.000000
0.000673 0.000824 0.000000
0.000675 0.000820 0.000000
0.000681 0.000823 0.000000
0.000685 0.000822 0.000000
0.000690 0.000820 0.000000
0.000049 0.000445 0.000000
0.000052 0.000450 0.000000
0.000048 0.000456 0.000000
0.000053 0.000458 0.000000
0.000048 0.000464 0.000000
0.000050 0.000472 0.000000
0.000051 0.000467 0.000000
0.000051 0.000477 0.000000
0.000047 0.000488 0.000000
0.000052 0.000491 0.000000
0.000058 0.000492 0.000000
0.000053 0.000498 0.000000
0.000468 0.000764 0.000000
0.000553 0.000831 0.000000
0.000567 0.000833 0.000000
0.000591 0.000826 0.000000
0.000603 0.000821 0.000000
0.000609 0.000822 0.000000
0.000612 0.000819 0.000000
0.000617 0.000820 0.000000
0.000629 0.000817 0.000000
0.000627 0.000821 0.000000
0.000635 0.000817 0.000000
0.000646 0.000818 0.000000
0.000651 0.000819 0.000000
0.000654 0.000822 0.000000
0.000664 0.000821 0.000000
0.000669 0.000815 0.000000
0.000666 0.000818 0.000000
0.000678 0.000817 0.000000
0.000684 0.000817 0.000000
0.000689 0.000815 0.000000
0.000054 0.000445 0.000000
0.000057 0.000450 0.000000
0.000054 0.000454 0.000000
0.000054 0.000463 0.000000
0.000057 0.000467 0.000000
0.000054 0.000472 0.000000
0.000057 0.000477 0.000000
0.000057 0.000480 0.000000
0.000052 0.000483 0.000000
0.000057 0.000486 0.000000
0.000056 0.000497 0.000000
0.000059 0.000496 0.000000
0.000482 0.000782 0.000000
0.000555 0.000839 0.000000
0.000559 0.000833 0.000000
[...]
POINT_DATA 10047
SCALARS density float 1
LOOKUP_TABLE default
4427.636537
4428.236051
4428.728096
4425.052941
4431.069560
4428.797167
4429.948890
4429.964364
4437.983499
4423.653350
4431.135307
4399.987216
4419.007730
4438.644308
4425.683870
4433.441823
4441.909885
4438.181258
4447.636058
4442.467908
4430.218280
4424.634187
4412.865183
4453.877618
4427.119028
4414.796963
4452.429758
4430.333078
4422.985549
4453.002507
4426.751949
4426.308831
4430.178211
4430.468115
4428.966196
4431.413212
4431.798443
4421.156992
4431.788682
4424.254869
4405.826307
4415.075551
4456.592142
4407.452993
4423.536945
4424.438103
4417.398971
4403.821075
4427.645066
4425.965450
4430.841391
4452.683328
4421.376346
4414.777614
4432.283719
4397.582748
4419.179809
4403.478082
4422.109589
4464.540817
4406.256482
4425.200677
4400.167565
4406.993237
4427.961468
4429.479625
4425.486353
4428.113981
4421.153556
4418.921339
4451.629077
4388.667852
4488.139847
4373.268420
4455.846364
4397.146675
4440.389313
4436.877883
4426.224751
4385.933962
4423.929000
4409.739427
4458.731467
4424.131617
4421.911464
4414.469440
4395.253578
4447.289133
4414.594348
4417.975049
4458.835828
4408.473457
4449.721394
4437.362253
4471.083682
4420.419288
4426.653255
4434.735192
4444.822536
4422.977978
4446.587462
4404.924143
4468.636140
4376.985871
4476.713774
4377.546171
4523.389398
4401.361489
4438.023418
4396.480421
4432.389584
4417.593053
4448.731119
4450.360838
4404.989729
4457.068504
4404.355173
4449.892045
4437.854645
4431.320541
4415.958290
4448.976182
4451.446500
4464.707408
4398.105745
4349.481767
4493.883582
4462.749189
4434.492434
4434.405861
4446.043586
4428.194229
4436.595604
4435.936318
4424.041075
4454.134116
4473.725781
4368.603500
4473.869508
4437.230058
4419.142238
4422.026607
4436.211463
4427.187332
4508.271962
4421.517955
4452.116051
4456.141900
4466.830977
4431.300236
4415.370976
4416.970984
4441.252329
4430.438089
4404.378116
4467.684998
4472.529732
4444.768472
4335.789556
4416.750586
4427.771585
4429.049890
4438.240153
4422.075970
4433.742752
4412.285894
4472.618337
4341.815755
4440.378989
4473.997292
4399.579573
4429.237647
4435.130929
4430.293811
4407.238595
4375.979742
4467.981467
4402.030017
4383.353430
4428.609761
4450.982093
4428.699516
4449.299192
4414.311800
4418.240026
4462.528860
4388.821911
4444.901074
4443.765514
4356.959674
4455.814713
4416.389402
4425.602181
4426.496182
4426.387939
4432.343594
4436.226863
4442.037377
4404.279234
4468.599949
4443.538162
4416.459237
4459.668681
4423.669530
4420.619293
4422.314612
4438.954456
4438.463862
4407.631105
4427.049552
4408.264164
4456.036427
4471.947173
4444.094383
4425.224701
4446.977420
4387.830059
4421.183511
4410.398655
4448.801926
4478.553192
4369.763519
4429.892037
4443.108681
4431.336596
4416.425036
4439.012141
4436.330200
4440.290492
4423.252043
4453.225858
4426.219487
4412.794913
4426.904265
4407.754763
4444.773576
4425.341800
4424.779103
4446.356333
4434.460608
4431.066189
4460.786333
4430.381537
4431.141833
4370.163474
4469.846022
4421.842508
4458.227319
4426.729697
4416.630147
4423.718937
4441.590947
4487.216648
4403.080644
4412.157880
4414.044012
4431.292337
4434.485509
4419.748423
4450.316932
4419.392150
4434.668414
4445.925354
4412.772440
4452.426534
4428.021702
4437.650362
4425.305910
4434.217503
4428.654823
4388.314497
4448.200419
4416.249465
4447.280333
4432.099321
4424.392061
4453.650524
4419.353479
4431.148056
4400.874351
4429.640074
4421.001390
4436.198096
4425.170432
4413.779058
4385.918388
4464.250581
4421.068032
4437.910134
4420.251449
4412.501190
4429.128354
4408.276081
4427.239526
4447.391871
4427.232849
4445.631476
4410.540316
4467.929095
4435.504209
4435.233047
4430.679444
4420.667979
4455.546395
4399.206620
4419.579875
4414.354688
4457.275193
4410.734697
4445.987833
4414.117098
4435.923333
4435.183971
4441.286533
4433.626092
4473.225594
4437.026385
4440.950727
4416.267927
4431.054630
4428.750095
4422.962136
4431.725983
4402.752975
4435.141672
4428.027103
4438.768121
4393.392121
4390.026222
4418.270262
4508.256642
4412.751746
4440.064930
4443.699133
4417.772860
4452.708206
4463.361113
4397.215841
4438.401308
4442.738689
4448.483758
4418.573728
4458.483604
4460.342974
4399.103688
4450.096006
4423.383335
4456.846215
4426.193101
4419.313715
4419.139206
4434.562041
4434.840833
4428.052121
4442.591011
4420.746835
4405.775685
4454.861133
4422.743143
4438.087349
4470.102756
4366.199589
4419.491896
4406.687460
4427.609756
4415.336641
4467.118185
4402.548400
4457.787964
4410.838205
4385.800604
4439.995554
4423.790541
4441.681208
4399.694673
4412.150622
4407.531024
4423.492757
4457.588152
4406.619407
4456.846186
4448.182103
4427.564288
4418.286107
4428.648280
4439.012541
4425.914569
4417.551764
4444.193411
4437.599362
4421.412180
4412.650280
4467.540514
4416.314836
4443.580409
4434.139541
4411.311602
4434.089444
4454.075126
4384.081458
4376.229716
4455.755172
4433.113550
4454.809306
4434.016389
4418.284719
4459.508644
4433.262793
4405.691143
4452.843156
4424.987647
4434.747204
4400.795730
4396.046108
4434.727069
4434.545684
4437.702650
4412.408002
4445.999688
4394.486441
4449.312884
4431.679325
4451.147355
4404.360007
4460.860079
4359.896886
4467.364523
4422.038698
4420.627561
4417.883371
4438.778045
4412.335303
4439.794105
4400.602830
4433.332165
4431.390774
4369.425154
4445.031144
4444.299847
4442.317449
4429.144429
4415.268465
4449.499297
4428.944702
4437.205857
4449.036847
4426.233385
4423.029787
4430.279447
4417.932101
4429.944329
4447.731648
4455.979077
4451.685271
4434.659090
4427.110366
4387.896266
4430.096566
4431.673735
4448.916356
4430.841257
4417.809751
4441.494723
4494.600374
4453.316437
4438.461427
4453.106348
4457.254428
4341.487639
4450.642186
4442.185508
4432.298018
4422.295587
4435.322052
4435.661929
4403.490874
4411.900513
4408.329122
4433.545000
4433.827668
4435.408936
4417.272934
4441.100651
4395.800007
4395.516318
4438.491509
4461.938125
4416.707216
4482.967979
4350.341745
4411.440789
4451.655048
4429.835917
4414.536404
4431.825239
4380.608386
4445.176088
4456.742899
4407.649583
4458.909299
4441.185363
4411.941440
4447.645217
4432.256897
4420.149767
4435.766348
4425.556191
4442.537816
4432.039417
4440.899804
4425.612932
4421.814537
4406.002246
4430.219758
4452.172689
4445.189718
4411.812616
4419.192718
4441.786042
4451.847993
4421.343141
4514.779215
4398.106870
4426.376515
4427.013828
4427.966053
4444.838257
4434.116102
4460.257506
4412.494383
4430.926880
4430.575656
4426.867017
4456.266183
4442.860557
4414.336742
4434.913551
4432.019232
4410.731063
4452.854747
4399.540408
4444.154135
4418.670872
4442.516291
4440.729757
4408.930560
4418.488458
4446.539887
4439.209339
4434.172924
4421.647770
4448.221576
4390.009783
4376.561851
4443.060880
4471.599785
4422.566909
4437.888456
4444.477291
4428.903394
4364.506671
4397.072641
4472.628485
4479.952827
4410.665372
4469.319699
4410.288342
4440.417518
4404.108024
4455.237076
4418.736296
4419.276923
4443.170900
4450.910322
4411.263950
4432.564991
4422.488934
4421.861057
4415.005273
4424.868425
4394.553090
4437.622450
4441.677414
4465.855573
4445.316094
4413.912195
4420.572672
4431.045213
4418.398048
4417.138164
4430.970110
4431.275061
4422.914458
4401.048871
4452.375143
4413.335066
4403.870808
4447.740559
4425.377890
4422.039125
4445.988316
4444.539407
4438.490152
4445.829934
4422.477731
4424.004824
4422.842435
4426.593118
4447.514866
4441.232315
4451.238633
4409.636080
4432.328490
4406.180084
4414.247915
4388.352267
4465.583070
4419.293275
4430.911765
4433.252386
4425.641706
4436.824363
4444.358040
4443.211713
4397.294562
4439.959495
4436.774031
4409.873049
4497.786115
4415.694533
4422.770902
4430.527416
4437.655648
4438.738379
4428.781019
4413.733976
4424.340308
4435.238207
4436.498351
4436.495094
4418.524778
4431.188148
4421.421535
4446.242153
4443.332887
4447.043420
4401.401040
4415.703406
4444.292212
4476.270726
4394.747586
4510.406280
4428.354339
4427.325919
4419.783392
4456.859974
4441.697562
4421.065758
4493.066224
4446.795712
4422.797367
4461.011748
4471.154554
4398.811733
4462.561589
4419.904189
4439.596446
4445.057658
4453.952550
4431.877375
4409.860911
4428.868480
4437.878303
4434.052721
4422.543825
4415.970939
4434.786350
4430.913763
4390.348684
4425.894912
4458.264718
4382.941496
4432.785634
4431.517560
4427.943941
4432.030364
4421.181471
4427.934726
4455.951474
4409.270946
4437.243749
4457.999856
4419.239730
4340.970487
4439.520524
4440.917849
4469.853495
4422.123835
4428.874956
4422.013962
4421.482222
4411.987670
4440.788799
4437.774762
4432.828796
4437.726843
4422.708041
4416.975882
4409.448697
4444.610354
4447.398187
4419.598814
4442.965678
4398.998060
4399.590959
4466.365774
4429.598741
4444.588330
4421.113240
4446.790463
4465.692989
4435.133306
4429.145473
4431.585289
4422.707826
4373.659659
4375.173420
4445.742238
4413.959547
4409.533200
4427.358650
4437.791729
4453.576344
4434.139535
4410.864724
4426.671063
4432.235893
4415.526772
4422.983784
4433.412037
4426.010741
4425.095638
4414.624485
4438.049568
4463.208774
4448.849968
4418.949635
4427.173549
4421.798386
4435.681655
4408.268666
4369.582553
4427.027807
4439.827863
4452.559885
4453.275967
4410.358561
4432.828195
4442.787812
4425.914569
4457.491526
4447.781058
4436.327651
4425.631626
4428.474442
4410.432066
4447.859876
4418.988891
4423.544098
4429.473719
4429.148864
4429.413930
4429.608176
4429.629748
4429.912622
4430.026449
4430.537252
4430.890952
4431.368064
4431.366895
4431.184388
4430.883736
4430.096517
4425.588257
4428.955599
4428.965292
4429.621582
4430.021121
4430.466507
4430.718118
4430.714459
4430.469551
4429.654928
4429.368793
4429.334359
4429.890881
4430.712736
4430.687639
4427.038237
4428.702875
4428.598465
4428.783914
4429.071340
4428.785755
4429.166600
4429.264146
4430.048857
4431.075887
4431.838717
4431.741053
4430.993405
4430.260538
4428.787219
4427.737826
4428.769681
4429.091114
4429.253922
4429.885922
4430.154470
4430.527628
4430.393107
4430.059354
4428.991140
4428.258209
4428.272049
4428.462467
4429.261026
4430.228911
4428.441280
4428.802512
4428.825494
4428.758326
4428.787237
4428.518647
4428.776207
4428.714838
4429.722794
4430.393550
4431.721276
4430.944903
4431.108621
4428.496513
4428.427555
4428.554744
4428.893736
4429.276502
4429.025465
4429.977912
4429.731962
4430.509077
4429.918475
4429.913336
4428.408490
4428.020815
4427.416027
4428.484955
4428.153000
4430.129349
4428.584275
4428.791880
4429.048557
4428.582156
4428.774028
4428.254939
4428.601810
4428.372446
4429.460376
4430.102586
4431.395205
4430.873593
4430.073680
4428.396217
4427.953818
4428.714598
4428.977319
4429.224180
4429.019183
4429.812579
4429.568408
4430.345963
4429.650195
4429.774458
4428.099207
4428.073140
4427.090772
4428.953908
4428.031120
4428.664656
4428.474134
4428.777215
4429.068638
4428.341128
4428.825653
4427.957289
4428.555128
4428.014093
4429.359923
4429.893151
4431.382727
4431.222485
4431.043296
4428.753721
4431.530829
4428.703865
4429.001664
4429.072479
4429.111466
4429.460159
4429.668639
4429.859950
4429.751717
4429.281633
4428.189193
4427.889877
4427.232955
4429.772171
4429.695192
4430.148364
4428.293746
4429.001946
4428.632280
4428.559377
4428.338450
4428.064268
4428.046629
4427.916328
4428.935982
4429.823611
4430.870531
4431.556255
4430.132978
4430.759381
4430.424111
4428.372653
4429.064539
4428.833732
4428.973065
4429.300814
4429.384759
4429.581131
4429.561778
4428.957454
4428.034759
4427.396509
4426.997932
4428.747527
4429.634862
4429.770400
4428.378619
4428.882010
4428.555286
4428.579039
4427.951002
4428.089704
4427.622997
4427.847707
4428.376857
4429.582414
4430.303883
4430.970467
4429.957516
4429.120870
4431.269285
4423.496459
4387.955211
4429.434548
4442.402760
4410.130482
4456.845552
4431.559971
4427.435689
4393.221728
4467.907609
4419.541290
4402.006523
4421.137620
4451.133561
4430.634493
4421.916216
4428.317339
4428.925493
4428.750921
4428.671583
4429.195576
4429.046375
4429.423462
4429.209858
4428.721105
4427.343948
4426.998436
4426.167113
4427.684361
4427.992892
4429.480276
4442.547109
4402.081448
4438.551587
4421.355210
4406.589516
4441.829410
4434.658378
4344.518537
4410.413041
4444.788150
4437.196793
4452.549105
4397.373341
4463.691272
4396.265133
4399.041189
4427.842322
4428.652303
4428.553065
4428.052131
4428.152300
4427.292959
4427.818533
4426.930497
4428.133133
4428.726197
4429.881481
4429.683075
4429.008506
4427.523262
4429.017029
4437.493056
4449.384231
4401.940179
4446.500695
4406.345836
4444.330409
4416.929644
4408.030282
4416.337631
4441.664837
4434.222515
4437.958151
4404.092800
4409.720159
4448.523841
4446.114805
4428.057744
4428.649614
4428.671332
4428.317181
4428.902157
4428.680561
4429.048141
4428.756358
4428.444886
4426.520245
4426.668276
4425.102018
4426.948923
4425.399333
4428.068700
4425.644992
4405.115550
4432.854241
4391.798803
4415.345688
4443.329952
4432.230661
4448.196239
4448.941216
4441.280162
4418.879165
4442.074747
4380.195841
4386.060713
4439.818023
4445.972845
4427.575941
4428.572261
4428.345065
4427.701023
4427.982354
4426.935032
4427.534218
4426.657372
4427.501887
4428.580741
4429.017168
4428.800186
4427.832557
4424.981306
4424.298560
4430.127654
4444.559423
4426.376754
4468.713588
4450.016783
4434.435594
4443.278660
4422.278085
4427.289452
4426.255719
4434.984954
4424.781920
4409.684676
4436.704771
4431.168338
4420.502302
4427.632558
4428.704758
4428.148776
4428.492708
4428.269259
4428.698291
4428.662638
4428.626172
4428.236198
4426.016554
4426.218425
4424.935239
4425.607660
4425.136087
4424.249679
4408.160056
4399.168353
4432.631511
4441.340825
4482.146764
4387.801053
4441.412242
4430.418714
4447.930621
4404.781622
4366.331997
4433.173646
4421.034748
4448.108202
4435.512779
4418.261999
4427.652431
4428.427698
4428.264838
4427.549382
4427.767408
4427.149120
4427.148012
4426.830751
4426.879382
4428.704072
4428.236993
4428.767857
4426.623080
4425.727536
4425.663229
4454.328301
4428.619820
4445.722502
4391.387801
4352.619227
4437.188544
4424.690525
4431.692217
4436.064051
4421.915113
4412.047198
4472.441656
4434.693276
4392.164318
4471.287321
4398.695917
4427.372490
4428.540781
4428.111957
4428.182365
4428.425511
4428.278514
4428.671527
4428.383300
4428.097496
4425.813734
4426.367659
4424.754878
4426.353223
4426.382713
4425.924098
4444.127519
4419.036813
4446.709262
4398.972107
4404.353455
4472.867789
4404.385458
4414.319006
4428.315130
4426.380744
4447.495303
4392.903048
4430.532207
4442.338107
4429.789131
4449.154920
4427.351074
4428.313739
4428.086892
4427.571428
4427.665501
4426.936240
4427.448721
4426.020462
4427.323987
4427.853162
4428.646386
4428.684596
4427.810918
4426.615900
4428.254684
4422.680864
4449.449162
4405.180483
4437.374044
4441.954689
4432.252692
4433.017294
4424.719792
4400.834875
4458.770991
4407.660868
4366.169636
4441.018585
4457.727405
4427.112997
4397.968945
4427.304794
4428.208617
4428.401963
4427.516826
4428.721774
4427.769970
4428.360783
4428.383412
4427.478462
4425.824667
4426.478849
4424.607222
4427.425798
4426.423643
4429.281626
4441.668157
4430.686916
4444.940759
4454.469056
4370.526225
4413.822352
4437.249513
4436.219822
4406.504226
4441.415673
4424.786164
4429.303691
4364.425221
4483.236733
4460.282005
4431.014277
4427.218746
4428.294115
4427.868749
4427.703428
4427.320291
4426.680981
4427.241124
4425.440280
4426.860517
4427.568502
4428.087716
4428.713213
4426.947903
4425.874061
4426.806549
4430.034382
4432.824084
4448.513445
4430.552196
4444.993422
4431.174632
4442.109642
4479.999499
4387.961331
4430.605538
4445.908438
4441.917395
4439.884646
4383.096315
4402.272409
4384.852412
4427.383334
4428.199036
4428.105234
4427.506171
4428.039441
4427.575853
4427.865610
4427.924391
4427.688774
4425.372437
4426.670188
4424.252463
4426.197455
4425.480480
4424.120182
4445.153123
4447.585262
4417.086306
4406.914658
4404.059695
4423.853070
4445.152000
4406.806444
4467.046047
4432.281029
4425.539798
4390.083052
4407.377233
4408.072210
4422.728393
4444.271624
4427.103720
4427.962111
4428.244114
4426.688888
4427.881962
4425.965660
4427.421864
4425.729226
4426.508614
4427.925574
4427.577097
4427.970739
4425.852699
4424.971893
4425.024505
4431.351152
4435.614904
4422.869858
4402.567255
4412.090449
4445.589950
4427.416528
4437.251323
4405.657577
4445.662765
4425.700583
4467.263832
4410.029376
4414.711772
4500.214101
4459.399517
4427.317261
4428.421100
4427.542753
4428.124484
4427.401662
4428.241520
4427.871082
4427.984957
4428.064316
4425.022388
4426.137626
4424.235319
4425.838077
4424.234977
4426.604744
4453.500715
4433.990486
4391.729891
4451.376111
4429.273656
4425.974171
4442.487457
4447.584105
4387.721310
4427.487666
4451.627405
4437.816724
4417.266642
4427.210575
4423.584889
4450.965830
4426.934312
4428.227348
4427.877653
4427.208146
4427.576577
4426.865590
4426.891274
4426.097517
4425.914682
4427.143977
4427.389680
4426.828054
4425.738324
4424.961451
4423.586847
4430.474521
4412.664527
4397.990446
4425.019901
4446.993307
4439.613327
4462.038588
4436.192044
4439.807642
4441.361301
4422.254572
4414.779616
4442.411180
4431.253872
4415.465430
4409.094843
4427.169452
4428.142775
4428.038697
4427.399764
4428.425944
4427.401803
4428.194636
4427.677164
4427.827885
4425.800823
4425.850827
4424.931435
4425.384508
4425.254425
4426.034509
4407.335399
4420.433844
4441.844440
4405.038968
4365.141692
4435.610843
4558.691899
4447.942268
4428.709407
4444.997691
4429.368115
4413.720324
4448.602937
4400.415605
4444.275444
4428.222898
4427.202364
4428.435558
4427.602931
4428.193279
4426.782185
4427.791606
4426.781890
4426.619491
4426.241442
4427.124313
4427.686168
4427.103271
4425.907545
4424.097209
4425.895502
4407.618986
4425.592296
4427.868556
4469.975540
4389.357005
4431.647581
4448.464656
4461.369240
4416.287774
4447.658493
4442.596330
4401.414319
4432.702891
4443.962289
4412.639425
4422.415446
4427.062590
4428.275392
4427.730981
4427.212609
4427.996602
4427.024635
4427.754793
4427.422958
4426.862159
4425.408480
4425.726597
4423.390101
4426.109804
4424.847005
4422.652163
4440.725775
4417.033783
4442.682205
4414.488029
4374.180527
4408.807590
4456.482458
4410.205218
4464.652535
4445.809170
4408.290988
4418.041181
4458.515152
4417.714873
4474.011980
4432.331935
4427.039350
4427.721125
4428.359984
4426.235737
4427.654996
4425.257724
4427.053413
4424.197456
4425.267702
4426.115724
4426.293182
4427.792170
4423.720108
4423.398879
4426.141231
4438.243047
4433.887674
4426.401163
4457.215679
4392.144216
4440.180436
4441.833227
4446.628781
4436.647478
4416.981679
4456.103084
4443.897117
4422.863821
4432.962392
4351.009613
4408.763152
4427.259483
4428.288767
4427.308412
4427.679798
4426.695997
4427.485692
4427.262321
4427.691805
4427.932642
4426.664513
4427.316603
4424.097749
4426.464954
4423.349532
4424.126807
4421.918954
4433.960292
4412.765828
4381.606045
4421.459050
4454.977641
4785.002882
4428.379468
4456.306430
4463.606268
4401.633087
4405.694756
4387.857257
4429.285875
4338.175251
4421.090516
4427.177105
4427.962567
4427.920285
4426.667358
4428.057424
4426.631678
4427.833674
4426.389674
4427.362033
4426.742101
4428.416699
4426.332745
4424.070861
4423.733140
4424.022135
4425.782482
4441.517854
4451.078800
4430.675035
4441.498509
4423.019494
4473.245121
4433.561154
4387.484392
4416.509340
4433.945558
4393.832301
4431.434058
4407.828204
4528.899777
4421.757790
4427.113942
4427.729437
4428.532025
4426.915143
4428.470937
4426.815816
4427.925308
4426.864137
4428.259437
4425.217202
4425.232618
4424.101582
4425.637382
4423.566653
4423.707054
4430.964419
4428.059410
4432.367302
4413.814096
4465.754227
4466.586130
4399.418654
4414.357105
4454.226415
4416.143590
4443.514925
4455.595487
4440.164629
4410.408336
4337.490325
4428.845289
4427.521938
4428.636314
4427.512090
4428.460220
4426.743413
4427.420760
4426.230919
4426.004961
4424.888924
4424.617482
4425.494393
4423.467670
4423.311477
4423.082225
4424.646134
4437.648874
4437.502632
4418.422327
4430.344227
4451.818882
4407.342670
4479.157507
4465.232615
4452.274415
4427.726720
4413.931234
4472.844599
4438.061141
4371.663148
4382.413166
4410.581939