# vtk DataFile Version 2.0
mfree iwf
ASCII

DATASET UNSTRUCTURED_GRID
POINTS 11907 float
-0.000000 0.000445 0.000000
-0.000000 0.000450 0.000000
-0.000000 0.000455 0.000000
-0.000000 0.000460 0.000000
-0.000000 0.000465 0.000000
-0.000000 0.000470 0.000000
-0.000000 0.000475 0.000000
-0.000000 0.000480 0.000000
-0.000000 0.000485 0.000000
0.000000 0.000490 0.000000
-0.000000 0.000496 0.000000
0.000002 0.000500 0.000000
0.001391 0.001086 0.000000
0.001399 0.001083 0.000000
0.001440 0.001058 0.000000
0.001444 0.001055 0.000000
0.001444 0.001055 0.000000
0.001450 0.001051 0.000000
0.001456 0.001046 0.000000
0.001452 0.001050 0.000000
0.001463 0.001041 0.000000
0.001484 0.001024 0.000000
0.001488 0.001018 0.000000
0.001491 0.001014 0.000000
0.001493 0.001010 0.000000
0.001496 0.001006 0.000000
0.001499 0.001001 0.000000
0.001501 0.000997 0.000000
0.001502 0.000993 0.000000
0.001506 0.000988 0.000000
0.001509 0.000983 0.000000
0.001525 0.000968 0.000000
0.000005 0.000445 0.000000
0.000005 0.000450 0.000000
0.000005 0.000455 0.000000
0.000005 0.000460 0.000000
0.000005 0.000465 0.000000
0.000005 0.000470 0.000000
0.000005 0.000475 0.000000
0.000005 0.000480 0.000000
0.000005 0.000485 0.000000
0.000006 0.000489 0.000000
0.000003 0.000496 0.000000
0.000006 0.000498 0.000000
0.001435 0.001060 0.000000
0.001437 0.001051 0.000000
0.001468 0.001034 0.000000
0.001473 0.001031 0.000000
0.001477 0.001027 0.000000
0.001480 0.001024 0.000000
0.001481 0.001022 0.000000
0.001483 0.001018 0.000000
0.001485 0.001014 0.000000
0.001488 0.001009 0.000000
0.001493 0.001002 0.000000
0.001495 0.000998 0.000000
0.001498 0.000991 0.000000
0.001503 0.000984 0.000000
0.001505 0.000980 0.000000
0.001508 0.000976 0.000000
0.001517 0.000970 0.000000
0.001519 0.000968 0.000000
0.001515 0.000972 0.000000
0.001523 0.000967 0.000000
0.000010 0.000445 0.000000
0.000010 0.000450 0.000000
0.000010 0.000455 0.000000
0.000010 0.000460 0.000000
0.000010 0.000465 0.000000
0.000010 0.000469 0.000000
0.000010 0.000475 0.000000
0.000010 0.000479 0.000000
0.000009 0.000486 0.000000
0.000011 0.000489 0.000000
0.000008 0.000497 0.000000
0.000011 0.000498 0.000000
0.001433 0.001057 0.000000
0.001440 0.001048 0.000000
0.001455 0.001041 0.000000
0.001461 0.001038 0.000000
0.001465 0.001035 0.000000
0.001469 0.001032 0.000000
0.001459 0.001032 0.000000
0.001466 0.001027 0.000000
0.001471 0.001023 0.000000
0.001476 0.001019 0.000000
0.001482 0.001011 0.000000
0.001486 0.001005 0.000000
0.001485 0.000999 0.000000
0.001489 0.000996 0.000000
0.001493 0.000994 0.000000
0.001500 0.000986 0.000000
0.001510 0.000973 0.000000
0.001512 0.000971 0.000000
0.001515 0.000965 0.000000
0.001515 0.000959 0.000000
0.000015 0.000445 0.000000
0.000016 0.000450 0.000000
0.000014 0.000456 0.000000
0.000017 0.000460 0.000000
0.000014 0.000469 0.000000
0.000016 0.000465 0.000000
0.000014 0.000476 0.000000
0.000017 0.000480 0.000000
0.000014 0.000484 0.000000
0.000016 0.000489 0.000000
0.000014 0.000495 0.000000
0.000016 0.000497 0.000000
0.000025 0.000500 0.000000
0.001443 0.001048 0.000000
0.001457 0.001039 0.000000
0.001450 0.001038 0.000000
0.001462 0.001029 0.000000
0.001472 0.001028 0.000000
0.001471 0.001020 0.000000
0.001478 0.001014 0.000000
0.001473 0.001012 0.000000
0.001479 0.001008 0.000000
0.001484 0.000994 0.000000
0.001489 0.001003 0.000000
0.001491 0.000988 0.000000
0.001496 0.000987 0.000000
0.001495 0.000982 0.000000
0.001499 0.000980 0.000000
0.001502 0.000974 0.000000
0.001506 0.000971 0.000000
0.001507 0.000966 0.000000
0.001513 0.000957 0.000000
0.000019 0.000445 0.000000
0.000021 0.000450 0.000000
0.000018 0.000455 0.000000
0.000022 0.000459 0.000000
0.000019 0.000469 0.000000
0.000024 0.000468 0.000000
0.000018 0.000475 0.000000
0.000022 0.000479 0.000000
0.000019 0.000486 0.000000
0.000021 0.000491 0.000000
0.000020 0.000497 0.000000
0.000022 0.000499 0.000000
0.000039 0.000500 0.000000
0.001436 0.001037 0.000000
0.001445 0.001041 0.000000
0.001451 0.001033 0.000000
0.001456 0.001035 0.000000
0.001465 0.001022 0.000000
0.001461 0.001018 0.000000
0.001473 0.001009 0.000000
0.001465 0.001016 0.000000
0.001475 0.001004 0.000000
0.001473 0.000995 0.000000
0.001476 0.000990 0.000000
0.001482 0.000988 0.000000
0.001490 0.000982 0.000000
0.001492 0.000972 0.000000
0.001500 0.000971 0.000000
0.001499 0.000966 0.000000
0.001507 0.000960 0.000000
0.001511 0.000962 0.000000
0.001509 0.000954 0.000000
0.000024 0.000445 0.000000
0.000026 0.000450 0.000000
0.000024 0.000455 0.000000
0.000026 0.000461 0.000000
0.000021 0.000464 0.000000
0.000025 0.000472 0.000000
0.000022 0.000476 0.000000
0.000027 0.000481 0.000000
0.000023 0.000485 0.000000
0.000026 0.000488 0.000000
0.000026 0.000492 0.000000
0.000027 0.000500 0.000000
0.001418 0.001073 0.000000
0.001445 0.001044 0.000000
0.001450 0.001043 0.000000
0.001460 0.001024 0.000000
0.001456 0.001027 0.000000
0.001470 0.001016 0.000000
0.001467 0.001010 0.000000
0.001458 0.001020 0.000000
0.001463 0.001006 0.000000
0.001481 0.001005 0.000000
0.001477 0.000998 0.000000
0.001480 0.001000 0.000000
0.001488 0.000991 0.000000
0.001487 0.000985 0.000000
0.001496 0.000975 0.000000
0.001492 0.000978 0.000000
0.001504 0.000964 0.000000
0.001495 0.000968 0.000000
0.001503 0.000958 0.000000
0.001504 0.000951 0.000000
0.000030 0.000445 0.000000
0.000031 0.000450 0.000000
0.000029 0.000455 0.000000
0.000031 0.000459 0.000000
0.000031 0.000464 0.000000
0.000029 0.000468 0.000000
0.000031 0.000472 0.000000
0.000030 0.000477 0.000000
0.000030 0.000486 0.000000
0.000031 0.000491 0.000000
0.000033 0.000497 0.000000
0.000030 0.000499 0.000000
0.000048 0.000500 0.000000
0.001435 0.001045 0.000000
0.001444 0.001031 0.000000
0.001452 0.001028 0.000000
0.001448 0.001028 0.000000
0.001453 0.001023 0.000000
0.001458 0.001010 0.000000
0.001468 0.000998 0.000000
0.001470 0.001005 0.000000
0.001472 0.001000 0.000000
0.001480 0.000992 0.000000
0.001478 0.000979 0.000000
0.001484 0.000984 0.000000
0.001484 0.000979 0.000000
0.001487 0.000970 0.000000
0.001489 0.000974 0.000000
0.001493 0.000962 0.000000
0.001498 0.000961 0.000000
0.001500 0.000955 0.000000
0.001501 0.000949 0.000000
0.000035 0.000445 0.000000
0.000035 0.000450 0.000000
0.000034 0.000457 0.000000
0.000038 0.000454 0.000000
0.000035 0.000467 0.000000
0.000036 0.000472 0.000000
0.000032 0.000479 0.000000
0.000041 0.000479 0.000000
0.000034 0.000483 0.000000
0.000034 0.000488 0.000000
0.000037 0.000491 0.000000
0.000036 0.000498 0.000000
0.001379 0.001089 0.000000
0.001414 0.001076 0.000000
0.001441 0.001036 0.000000
0.001443 0.001025 0.000000
0.001455 0.001016 0.000000
0.001443 0.001016 0.000000
0.001462 0.001012 0.000000
0.001458 0.001007 0.000000
0.001466 0.001004 0.000000
0.001456 0.000997 0.000000
0.001462 0.000988 0.000000
0.001470 0.000982 0.000000
0.001478 0.000984 0.000000
0.001481 0.000973 0.000000
0.001491 0.000966 0.000000
0.001480 0.000960 0.000000
0.001491 0.000955 0.000000
0.001494 0.000958 0.000000
0.001497 0.000952 0.000000
0.001496 0.000946 0.000000
0.000040 0.000445 0.000000
0.000041 0.000450 0.000000
0.000036 0.000462 0.000000
0.000040 0.000457 0.000000
0.000041 0.000463 0.000000
0.000039 0.000468 0.000000
0.000041 0.000473 0.000000
0.000037 0.000477 0.000000
0.000041 0.000487 0.000000
0.000042 0.000491 0.000000
0.000041 0.000497 0.000000
0.000044 0.000498 0.000000
0.001223 0.001076 0.000000
0.001433 0.001053 0.000000
0.001433 0.001042 0.000000
0.001438 0.001023 0.000000
0.001452 0.001018 0.000000
0.001449 0.001014 0.000000
0.001453 0.001011 0.000000
0.001462 0.001000 0.000000
0.001466 0.000992 0.000000
0.001471 0.000991 0.000000
0.001465 0.000995 0.000000
0.001463 0.000978 0.000000
0.001471 0.000973 0.000000
0.001476 0.000969 0.000000
0.001484 0.000975 0.000000
0.001481 0.000968 0.000000
0.001486 0.000963 0.000000
0.001488 0.000958 0.000000
0.001492 0.000950 0.000000
0.001492 0.000944 0.000000
0.000044 0.000445 0.000000
0.000046 0.000450 0.000000
0.000045 0.000455 0.000000
0.000046 0.000461 0.000000
0.000044 0.000467 0.000000
0.000047 0.000474 0.000000
0.000045 0.000478 0.000000
0.000040 0.000483 0.000000
0.000051 0.000485 0.000000
0.000045 0.000483 0.000000
0.000048 0.000493 0.000000
0.000050 0.000498 0.000000
0.001230 0.001079 0.000000
0.001432 0.001062 0.000000
0.001446 0.001035 0.000000
0.001448 0.001021 0.000000
0.001443 0.001020 0.000000
0.001454 0.001004 0.000000
0.001450 0.001004 0.000000
0.001457 0.001000 0.000000
0.001455 0.000990 0.000000
0.001467 0.000986 0.000000
0.001473 0.000986 0.000000
0.001475 0.000974 0.000000
0.001469 0.000977 0.000000
0.001475 0.000967 0.000000
0.001483 0.000964 0.000000
0.001483 0.000956 0.000000
0.001483 0.000954 0.000000
0.001486 0.000951 0.000000
0.001488 0.000947 0.000000
0.001488 0.000941 0.000000
0.000049 0.000445 0.000000
0.000053 0.000450 0.000000
0.000049 0.000454 0.000000
0.000053 0.000455 0.000000
0.000048 0.000465 0.000000
0.000048 0.000471 0.000000
0.000053 0.000468 0.000000
0.000051 0.000478 0.000000
0.000047 0.000488 0.000000
0.000052 0.000491 0.000000
0.000057 0.000492 0.000000
0.000053 0.000498 0.000000
0.001322 0.001096 0.000000
0.001422 0.001062 0.000000
0.001430 0.001049 0.000000
0.001439 0.001026 0.000000
0.001445 0.001012 0.000000
0.001449 0.001008 0.000000
0.001442 0.001007 0.000000
0.001447 0.001001 0.000000
0.001451 0.000991 0.000000
0.001460 0.000994 0.000000
0.001456 0.000988 0.000000
0.001464 0.000983 0.000000
0.001462 0.000971 0.000000
0.001474 0.000980 0.000000
0.001470 0.000963 0.000000
0.001470 0.000956 0.000000
0.001475 0.000962 0.000000
0.001479 0.000950 0.000000
0.001484 0.000945 0.000000
0.001483 0.000939 0.000000
0.000053 0.000445 0.000000
0.000058 0.000450 0.000000
0.000055 0.000462 0.000000
0.000050 0.000460 0.000000
0.000060 0.000466 0.000000
0.000054 0.000473 0.000000
0.000057 0.000476 0.000000
0.000057 0.000480 0.000000
0.000052 0.000483 0.000000
0.000057 0.000486 0.000000
0.000056 0.000497 0.000000
0.000059 0.000496 0.000000
0.001345 0.001094 0.000000
0.001431 0.001064 0.000000
[...]
POINT_DATA 11907
SCALARS density float 1
LOOKUP_TABLE default
4427.934392
4430.131665
4425.529161
4429.421280
4431.570501
4427.208227
4437.305793
4428.292742
4432.693248
4420.840891
4429.344591
4405.266469
4430.484519
4421.431000
4415.956251
4443.481383
4440.278737
4437.765120
4452.582430
4455.023074
4426.900873
4410.808309
4399.419153
4447.021095
4424.718661
4435.456755
4449.996741
4420.517293
4437.415278
4451.905018
4429.386546
4402.298773
4431.864644
4431.117427
4429.952886
4425.897218
4431.683869
4419.855811
4424.414469
4420.072422
4420.292928
4426.550927
4449.725924
4408.494531
4411.987406
4419.829779
4425.906280
4412.014301
4425.759901
4440.093087
4450.608341
4471.476083
4436.251399
4418.740475
4419.103057
4398.689628
4436.683725
4388.927172
4437.328899
4455.959561
4429.541040
4431.421124
4416.761010
4397.901460
4421.099468
4426.991805
4433.318993
4421.365628
4431.953279
4425.707545
4455.746353
4400.952972
4471.184024
4383.995325
4448.399532
4403.502802
4470.019777
4444.204364
4432.453636
4398.858954
4415.321722
4412.694370
4468.699198
4450.140755
4433.539868
4368.415892
4425.306729
4436.505270
4394.813569
4457.031338
4422.258721
4375.421538
4413.360936
4425.550922
4444.371756
4413.646304
4424.821472
4437.846413
4444.083301
4418.762278
4417.156890
4449.302401
4449.577048
4388.347647
4462.698401
4388.483202
4508.694923
4406.362149
4434.538770
4387.621893
4412.287678
4468.831091
4452.165818
4439.533523
4446.796470
4374.400988
4451.142264
4428.769057
4430.125764
4432.790704
4397.544928
4480.545410
4430.956982
4489.355795
4433.477059
4379.456637
4495.429489
4433.656478
4436.171507
4420.840611
4441.960565
4429.302536
4406.014311
4433.691407
4436.203425
4435.170751
4479.479195
4372.509765
4461.895610
4433.317383
4418.141556
4433.254283
4465.221398
4382.980178
4465.388711
4396.738182
4453.583280
4439.681760
4431.351977
4381.696764
4416.330173
4444.297522
4431.349225
4426.333821
4467.455658
4476.170910
4419.980404
4409.849039
4391.815404
4424.097940
4432.720995
4429.046027
4438.240235
4414.449550
4440.071199
4421.047222
4453.924351
4382.349886
4420.315826
4460.006167
4425.851935
4423.089182
4434.825757
4433.733093
4363.761137
4440.085514
4401.283849
4461.650362
4364.627351
4460.898384
4460.090339
4451.872836
4457.452494
4447.344457
4440.949005
4438.735668
4374.364837
4416.772257
4420.586597
4413.339940
4463.609635
4426.048163
4423.116549
4431.245868
4417.601150
4440.523167
4431.516504
4448.645776
4397.532992
4450.421106
4448.066925
4410.365398
4450.081140
4418.004426
4415.891081
4446.979365
4460.424906
4456.115549
4414.365617
4427.756392
4440.221660
4395.392565
4450.421993
4447.151490
4407.120068
4446.400717
4461.080295
4397.530395
4405.509513
4446.438893
4451.528906
4417.543511
4396.128722
4449.013919
4426.943626
4435.083356
4439.656665
4424.297012
4429.381728
4437.203228
4444.415738
4430.910341
4399.693808
4429.641030
4418.747639
4444.815301
4414.815094
4424.544305
4386.722966
4417.698089
4411.304810
4468.150489
4449.396074
4428.169191
4441.641788
4448.866134
4396.165084
4433.236730
4392.807916
4446.276877
4407.386291
4370.796632
4441.001881
4428.448054
4415.362343
4418.301850
4431.494385
4428.917460
4413.940759
4445.715108
4422.690341
4438.311135
4426.950607
4426.551840
4450.082526
4427.729601
4435.416478
4421.156734
4435.985944
4456.531684
4391.844385
4439.062340
4441.448108
4451.952428
4445.715655
4397.630017
4447.941429
4410.656869
4467.442159
4415.593942
4415.546519
4432.292571
4417.535307
4435.328659
4466.663321
4369.395433
4449.518970
4426.280542
4430.004592
4419.085875
4418.009876
4452.895891
4421.465656
4438.181575
4438.763187
4433.933642
4457.079716
4414.244961
4473.840818
4432.768433
4435.389299
4440.367213
4409.832599
4441.094793
4384.553905
4388.161745
4464.479931
4487.027643
4447.683753
4426.555367
4432.845241
4418.077525
4431.331432
4429.559455
4447.205419
4458.953971
4460.841141
4419.886435
4414.754287
4447.381398
4426.223671
4413.294807
4459.696431
4421.950724
4430.126641
4451.890636
4402.594110
4383.366641
4391.245528
4418.182595
4517.846996
4411.854967
4437.442226
4427.475654
4405.091957
4450.547147
4371.925269
4417.273653
4431.432039
4426.769849
4406.391896
4403.672063
4471.979240
4442.955865
4400.402720
4435.455173
4424.001382
4419.467257
4438.836207
4414.315533
4425.299860
4423.349549
4438.762976
4424.980046
4474.041299
4405.284421
4416.159386
4446.277855
4430.858653
4419.435047
4474.125050
4355.677526
4416.134793
4402.396720
4435.400792
4429.501765
4436.317396
4417.870173
4421.349579
4455.514725
4382.743998
4412.741935
4446.242883
4414.703740
4425.075186
4441.599213
4456.730957
4423.699486
4477.360784
4402.551135
4446.142386
4424.329561
4438.802340
4422.500574
4419.888788
4407.080686
4449.280216
4434.527633
4387.706929
4434.173806
4429.794370
4383.623744
4447.181748
4425.466779
4444.861596
4435.933704
4424.773594
4433.200376
4425.535861
4365.236746
4404.235507
4435.393137
4449.701979
4480.064811
4442.315796
4458.804851
4440.088530
4429.842844
4432.776871
4461.057175
4432.388547
4405.430695
4431.883081
4407.819560
4442.180861
4436.084750
4441.967587
4436.906181
4432.915537
4442.838733
4447.704249
4421.607731
4399.489974
4465.016949
4473.015444
4401.996115
4427.845904
4439.902427
4416.806910
4429.145079
4398.488104
4364.752707
4426.183887
4395.074610
4456.347567
4401.061501
4443.133533
4415.519463
4473.347780
4419.829564
4435.114701
4466.350269
4402.154424
4404.048199
4440.737246
4448.763872
4412.931614
4421.841310
4415.785096
4441.540861
4437.982651
4444.553500
4426.545141
4410.622786
4396.131421
4436.104423
4398.055946
4451.514011
4437.686629
4453.603498
4424.103298
4440.459240
4421.264689
4466.833747
4447.833564
4438.011175
4426.244190
4461.489077
4392.016217
4417.433683
4401.891267
4415.091868
4448.951435
4441.857773
4426.055863
4415.669686
4448.731559
4414.335976
4441.439623
4438.084870
4436.112820
4440.189883
4421.466034
4418.185831
4403.142052
4457.722656
4446.153146
4437.520950
4434.080308
4379.432203
4402.850863
4450.200018
4424.816743
4429.042700
4432.764661
4453.758247
4450.734138
4383.021776
4395.429937
4441.498091
4374.800479
4399.764676
4425.863955
4437.757146
4398.185975
4428.893524
4418.601378
4436.081303
4446.317938
4398.149139
4441.446084
4417.705796
4421.961536
4433.892177
4440.727593
4409.153934
4447.195603
4395.704227
4436.599603
4450.278154
4413.708112
4370.613331
4422.990575
4425.187317
4421.192663
4424.987704
4432.395250
4442.500139
4475.509712
4425.842031
4414.193515
4440.502376
4435.202981
4450.709417
4388.592049
4484.633670
4408.466470
4441.350971
4439.981000
4415.152333
4413.961388
4452.519250
4424.620204
4444.720530
4435.025886
4419.662314
4448.601998
4414.103366
4457.688256
4408.323930
4423.574755
4436.381518
4386.936956
4504.556155
4438.080716
4449.241087
4424.350096
4429.503626
4444.339928
4437.738312
4471.252474
4428.806090
4510.804565
4493.445692
4424.453592
4442.659488
4421.672346
4406.130336
4444.150063
4396.490197
4416.036950
4448.209793
4446.133352
4432.150981
4421.696603
4430.946825
4413.592854
4422.720601
4435.408175
4452.433871
4448.792868
4438.153020
4454.796784
4459.009581
4452.721262
4437.294627
4391.811723
4422.413240
4422.089555
4426.326230
4428.126446
4446.737021
4423.307168
4442.989999
4434.901940
4422.103056
4422.906322
4450.860648
4464.538500
4374.015322
4461.706779
4426.734448
4421.795731
4417.189193
4417.452827
4412.956808
4424.726882
4430.957473
4451.143802
4419.084594
4417.981307
4436.765346
4412.069495
4390.237063
4439.622154
4426.278895
4446.665187
4425.950171
4432.092876
4430.220429
4413.306043
4441.171890
4444.123487
4478.688563
4428.336047
4469.350830
4468.762907
4431.632842
4482.587129
4429.985351
4394.776728
4400.264875
4396.681938
4386.242826
4455.382334
4444.687222
4425.572702
4447.589073
4442.824924
4437.211727
4434.076862
4434.006344
4452.579764
4397.174480
4420.445532
4457.494046
4400.217190
4406.353475
4468.563708
4454.695935
4412.332685
4493.811384
4422.734424
4412.376377
4400.132691
4476.747212
4440.618775
4433.262629
4342.608808
4435.791400
4405.970501
4443.824031
4476.614545
4428.915207
4464.420852
4465.003100
4435.119185
4377.600567
4445.200999
4412.820685
4406.730619
4431.571990
4440.463511
4419.764460
4445.134011
4430.257994
4411.685852
4397.941485
4423.606946
4454.720894
4456.836901
4364.297518
4438.086620
4433.979211
4440.685953
4421.293062
4441.073917
4437.416542
4444.535091
4440.800005
4460.641685
4434.764909
4425.036085
4340.861424
4472.956368
4448.495590
4443.821303
4451.458286
4413.254195
4460.842773
4438.525916
4434.320410
4443.150107
4430.423341
4405.333444
4437.472993
4413.117751
4432.043504
4459.255889
4434.724140
4435.866012
4487.964445
4415.362632
4405.962047
4390.260561
4463.594626
4433.386734
4466.641523
4399.229173
4438.989563
4432.059878
4430.493933
4427.052515
4436.644972
4442.439059
4398.833839
4351.792347
4487.807858
4435.418899
4391.613220
4449.746735
4443.335830
4448.219344
4418.314926
4437.072229
4417.154812
4444.042764
4433.265832
4421.056900
4425.825996
4419.374358
4433.106220
4415.504355
4413.028209
4399.430336
4440.653249
4443.091870
4432.919398
4460.943258
4419.751138
4437.568449
4403.367408
4363.338583
4390.622894
4423.389184
4381.746512
4365.855626
4450.773612
4425.503347
4375.217432
4439.417990
4435.422626
4416.897406
4404.656526
4406.115798
4462.551049
4442.622787
4429.616367
4428.948936
4430.481271
4430.763773
4430.948329
4430.802440
4430.274615
4429.862016
4429.435318
4429.586099
4430.200565
4431.372329
4431.881744
4431.538151
4431.170123
4430.610479
4429.617283
4430.278027
4429.206039
4428.826625
4429.474395
4430.591009
4432.087574
4433.095273
4433.398749
4432.088816
4429.667150
4428.245187
4428.937072
4430.335999
4430.613758
4429.680999
4430.183427
4431.325578
4432.006983
4431.637967
4430.228378
4428.866642
4427.492778
4427.402251
4428.617775
4431.788401
4433.364996
4431.953596
4430.187803
4428.950493
4430.221645
4430.043920
4428.855807
4428.261545
4428.613593
4430.273815
4431.581592
4433.428225
4433.358196
4432.284286
4428.863192
4426.857234
4427.253119
4428.822737
4429.054001
4429.975539
4429.852410
4431.286358
4431.973061
4431.547341
4430.044260
4428.506651
4426.784942
4426.661072
4427.904056
4431.110750
4433.106595
4432.085915
4429.633864
4429.660157
4430.026692
4429.701284
4428.988016
4427.439158
4428.840439
4429.366278
4431.802511
4432.430619
4433.782300
4430.945037
4429.473947
4425.625203
4428.342375
4428.462172
4429.823636
4429.731260
4429.625879
4431.228428
4431.681521
4431.447255
4429.650906
4428.278306
4426.330730
4426.345705
4427.617614
4430.480278
4432.856924
4431.444449
4429.153592
4429.508289
4429.773902
4429.672570
4428.652418
4427.503735
4428.213070
4429.566312
4431.005179
4432.718547
4432.845766
4431.273740
4428.684784
4425.541026
4427.154121
4428.097170
4428.488753
4429.143699
4429.711933
4430.786258
4431.556394
4431.305796
4429.299185
4428.208257
4425.821177
4426.370452
4427.009398
4430.412954
4432.514765
4431.573136
4429.448111
4430.964477
4429.572558
4429.500480
4428.494151
4427.249653
4428.086153
4429.208822
4430.941209
4432.235391
4432.730560
4430.675018
4428.725570
4425.079304
4427.665737
4427.274359
4429.331241
4429.029455
4429.581649
4430.663993
4431.466091
4430.812162
4429.484507
4427.419113
4426.157509
4425.840444
4426.968897
4429.871121
4432.252340
4430.671760
4427.709078
4425.283565
4429.293543
4429.594368
4428.036619
4427.196917
4427.717038
4428.991748
4430.692839
4432.167135
4432.164913
4431.015518
4427.655195
4425.743175
4425.747621
4427.499931
4429.622438
4428.841116
4429.375357
4430.520071
4431.253008
4430.554471
4429.296815
4427.296868
4425.845331
4425.977113
4426.598655
4429.852738
4432.372002
4431.651622
4429.177146
4428.378076
4461.639595
4433.051042
4402.935351
4437.793790
4441.413883
4462.430958
4432.950417
4409.888057
4405.267735
4460.993340
4471.993196
4405.542761
4466.882744
4479.185949
4455.941287
4426.854078
4428.997889
4429.301757
4428.147879
4426.523644
4427.912090
4428.460585
4430.706600
4431.795672
4432.049100
4430.306523
4428.840403
4424.806752
4428.312924
4429.567981
4432.908326
4424.056582
4411.585498
4440.903531
4420.427484
4422.699748
4440.727174
4436.255191
4449.416275
4396.913493
4386.978028
4437.671130
4414.856904
4439.463511
4346.884882
4481.924815
4409.009110
4428.423256
4429.204416
4430.313322
4430.917636
4430.588117
4428.713998
4427.675760
4425.087870
4426.527570
4426.277668
4429.326594
4432.962786
4431.135594
4429.037677
4431.758985
4438.155108
4404.239255
4408.375416
4444.693112
4424.680803
4451.185898
4413.433838
4414.835626
4410.228508
4442.756582
4457.628054
4423.468798
4447.834716
4459.335329
4418.596347
4412.307055
4428.793782
4429.323747
4427.782663
4426.617992
4427.362807
4428.929928
4429.827520
4432.340575
4430.629219
4430.818016
4428.438723
4424.098416
4427.771664
4427.058116
4427.707170
4430.117877
4414.933882
4425.877919
4398.429950
4389.134382
4452.042607
4441.016631
4411.191155
4430.571831
4435.646408
4414.608824
4417.010482
4387.628040
4408.666775
4434.288350
4452.922529
4428.326841
4429.346320
4429.862995
4431.038545
4430.225696
4428.922158
4427.247321
4425.203174
4426.228051
4425.935917
4428.730599
4433.116992
4429.071535
4428.048968
4427.827861
4434.397028
4431.549168
4438.066588
4458.490204
4438.435824
4438.059223
4438.621638
4487.904393
4426.778558
4439.570298
4393.274565
4443.059894
4462.889108
4416.349269
4433.884435
4418.836701
4428.359339
4429.218696
4427.650178
4426.584880
4427.200839
4428.908353
4429.855433
4431.949813
4430.423468
4430.523551
4428.025488
4424.056216
4427.270485
4426.904842
4426.673996
4425.854824
4429.732516
4428.226460
4392.296443
4476.847744
4398.779305
4422.425737
4454.368841
4470.903775
4408.780199
4417.255701
4463.185966
4455.762780
4416.991573
4452.993365
4418.882627
4428.386276
4429.413696
4429.622275
4431.022784
4429.990705
4429.094266
4426.752393
4425.803871
4425.882590
4426.056005
4428.387683
4432.951398
4428.834287
4428.664719
4428.036515
4428.189180
4405.183503
4452.413068
4445.684029
4345.150204
4439.885558
4419.019441
4422.620912
4425.654545
4439.995732
4421.079323
4449.586841
4410.061902
4453.789282
4459.413966
4421.808292
4428.153340
4429.187942
4427.393254
4426.640836
4426.848383
4428.815026
4429.698415
4431.837150
4430.259977
4430.535368
4427.975802
4424.476299
4427.168342
4427.624001
4426.309996
4431.098453
4394.654618
4377.585093
4376.225299
4385.405147
4483.733467
4440.362481
4422.130831
4421.580165
4440.348266
4442.121110
4399.253402
4419.647362
4387.933128
4465.855346
4407.517832
4428.188130
4429.134221
4429.686796
4430.515452
4430.251261
4428.436054
4427.102643
4425.584925
4426.619110
4425.654116
4428.697623
4432.901431
4429.862515
4428.823501
4428.781323
4446.259005
4449.539183
4391.511022
4406.568790
4442.393567
4435.065726
4434.119898
4428.515663
4476.204582
4467.142174
4390.616642
4413.235623
4447.574073
4393.465266
4431.161596
4400.132900
4428.138727
4428.783690
4427.658388
4426.222408
4427.104688
4428.319189
4429.808811
4431.457410
4430.395768
4430.151644
4428.269080
4424.451311
4427.853080
4426.833394
4428.520817
4448.097108
4438.504151
4429.623700
4444.301140
4376.447624
4420.549500
4427.357237
4443.478283
4382.203025
4423.734650
4441.588404
4481.934255
4404.812277
4393.040401
4433.079353
4444.696018
4428.064640
4429.043107
4429.484592
4430.424064
4430.170493
4428.256438
4427.033402
4425.869872
4426.833917
4425.430080
4428.371609
4432.872746
4429.815979
4428.885949
4427.682989
4422.339985
4443.601255
4405.665957
4449.590989
4431.337939
4432.758667
4446.850808
4472.379867
4418.252389
4429.866167
4413.442215
4422.596087
4467.732452
4405.372500
4466.975500
4407.721825
4428.005741
4428.948893
4427.321397
4426.682240
4426.508571
4428.813528
4429.136816
4431.571582
4430.005609
4430.165157
4427.390698
4424.554974
4425.908036
4426.491287
4424.723018
4435.946362
4488.287743
4442.544243
4401.179593
4416.912094
4419.629967
4445.653579
4414.649355
4468.003962
4452.350329
4412.854935
4426.281901
4444.192916
4420.096280
4403.318590
4412.352823
4427.933189
4429.306991
4428.970330
4430.732367
4430.029016
4428.296012
4426.894504
4426.470552
4426.421722
4425.545569
4427.584388
4432.363535
4428.260398
4427.666965
4425.367618
4422.433811
4452.307201
4447.212609
4444.774602
4419.412758
4433.268975
4446.648130
4431.533247
4429.423736
4440.837381
4422.833364
4417.077639
4433.247567
4377.568721
4471.898274
4445.540416
4427.822067
4429.090255
4427.189373
4426.886633
4426.298189
4429.095843
4428.892263
4431.503507
4429.724026
4429.944605
4427.081356
4424.704395
4425.651620
4425.622807
4426.753686
4405.598667
4444.711823
4402.982284
4421.239011
4441.417391
4432.435354
4433.270359
4426.954376
4405.381660
4448.561533
4438.506847
4422.448852
4395.065633
4434.187922
4381.808213
4446.673674
4427.794425
4429.379922
4428.799291
4430.941983
4429.718401
4428.328398
4426.722629
4427.020656
4426.334941
4425.890421
4427.340676
4431.867772
4428.565748
4427.072978
4425.483132
4428.406202
4419.206981
4416.021992
4459.294853
4398.797025
4410.592109
4424.889171
4444.410618
4433.852517
4437.667884
4437.395108
4407.371592
4452.076878
4464.583077
4425.850212
4400.270491
4428.032778
4428.975813
4427.425482
4426.622644
4426.706761
4428.478605
4429.084085
4431.683867
4429.590074
4429.962178
4427.340777
4425.280272
4425.528657
4425.861298
4424.712375
4424.903266
4415.152772
4428.743317
4416.659094
4409.507450
4441.843414
4419.897595
4427.531297
4417.163568
4450.896931
4492.845566
4409.161547
4458.825660
4453.805272
4470.088044
4425.180637
4427.979556
4429.120944
4429.141072
4430.639470
4429.678949
4428.211258
4427.071714
4426.808437
4427.433905
4425.763830
4427.151148
4432.224451
4429.148630
4427.521765
4426.150883
4432.151700
4419.052793
4446.407730
4435.091616
4390.245770
4431.790886
4452.221435
4436.358495
4456.691928
4420.018654
4482.693425
4448.875956
4404.850931
4447.419937
4457.176585
4420.340885
4428.369555
4429.043797
4427.478983
4426.776318
4426.654816
4428.390229
4429.051421
4431.670439
4429.874751
4429.531042
4428.126457
4425.041174
4426.603725
4425.301242
4426.063454
4440.946928
4447.603782
4434.715021
4454.042529
4387.473503
4417.591830
4444.448312
4383.657570
4453.421960
4441.038471
4443.667577
4454.519894
4447.702030
4453.169360
4420.301278
4406.790922
4428.148255
4428.865390
4429.334901
4430.204413
4430.349697
4427.481506
4427.803772
4426.740332
4428.014725
4425.387359
4427.439705
4432.702137
4428.219986
4426.966075
4426.696095
4445.884562
4449.316615
4406.692243
4463.428591
4388.393015
4436.146247
4438.710085
4419.087608
4470.408294
4446.171163
4462.685928
4403.508888
4402.604516
4462.549682
4426.486506
4426.428011
4428.240678
4429.415665
4427.358999
4427.208242
4426.225439
4429.460196
4428.561903
4431.575823
4430.587529
4429.783774
4427.518652
4425.934525
4425.491556
4425.078906
4424.787693
4433.752856
4435.485252
4411.199576
4376.205363
4429.842590
4443.723749
4443.192001
4423.368918
4385.815308
4447.077040
4400.355140
4416.607005
4429.351236
4377.840356
4424.189883
4449.087345
4428.165380
4429.404141
4428.392188
4431.353846
4429.884180
4428.483808
4427.556548
4428.674075
4426.897820
4425.809928
4428.317682
4431.409574
4428.061071
4427.775544
4426.400841
4419.255529
4399.291218
4413.589877
4427.903879
4455.670145
4422.396330
4434.675501
4495.693955
4405.073513
4407.563083
4429.424217
4411.476806
4480.656524
4420.642596
4562.416047
4413.213924
4428.288445
4429.249734
4427.997279
4426.899465
4427.012101
4428.996382
4428.533047
4431.854645
4430.477849
4429.383437
4427.477086
4427.224826
4426.407923
4426.176120
4423.356840
4445.924855
4425.193929
4447.222993
4432.939708
4460.545429
4462.851893
4440.686520
4456.641163
4474.848066
4430.792010
4449.482984
4441.078429
4448.802906
4447.480641
4278.150019
4429.244393
4428.589614
4429.554585
4428.513899
4431.228252
4429.582657
4428.292643
4427.124892
4428.939804
4426.512655
4426.959047
4428.298357
4430.754474
4427.320483
4427.776671
4425.059689
4423.536220
4382.539622
4381.035858
4407.057156
4443.972285
4412.467874
4435.849351
4442.165932
4433.781507
4434.412690
4397.388038
4444.586119
4440.438162
4417.135889
4388.586761
4404.765076