# vtk DataFile Version 2.0
mfree iwf
ASCII

DATASET UNSTRUCTURED_GRID
POINTS 9387 float
0.000000 0.000445 0.000000
0.000000 0.000450 0.000000
0.000000 0.000455 0.000000
0.000000 0.000460 0.000000
0.000000 0.000465 0.000000
0.000000 0.000470 0.000000
0.000000 0.000475 0.000000
0.000000 0.000480 0.000000
0.000000 0.000485 0.000000
0.000001 0.000490 0.000000
0.000000 0.000496 0.000000
0.000002 0.000500 0.000000
0.000308 0.000701 0.000000
0.000312 0.000709 0.000000
0.000339 0.000746 0.000000
0.000344 0.000751 0.000000
0.000344 0.000751 0.000000
0.000347 0.000755 0.000000
0.000353 0.000760 0.000000
0.000351 0.000759 0.000000
0.000359 0.000769 0.000000
0.000379 0.000788 0.000000
0.000384 0.000791 0.000000
0.000388 0.000793 0.000000
0.000392 0.000795 0.000000
0.000397 0.000798 0.000000
0.000401 0.000800 0.000000
0.000407 0.000802 0.000000
0.000410 0.000803 0.000000
0.000416 0.000806 0.000000
0.000422 0.000809 0.000000
0.000445 0.000821 0.000000
0.000005 0.000445 0.000000
0.000005 0.000450 0.000000
0.000005 0.000455 0.000000
0.000005 0.000460 0.000000
0.000005 0.000465 0.000000
0.000005 0.000470 0.000000
0.000005 0.000475 0.000000
0.000005 0.000480 0.000000
0.000005 0.000485 0.000000
0.000006 0.000490 0.000000
0.000004 0.000496 0.000000
0.000006 0.000499 0.000000
0.000337 0.000742 0.000000
0.000348 0.000746 0.000000
0.000366 0.000772 0.000000
0.000370 0.000777 0.000000
0.000374 0.000780 0.000000
0.000377 0.000783 0.000000
0.000380 0.000785 0.000000
0.000384 0.000786 0.000000
0.000390 0.000789 0.000000
0.000395 0.000791 0.000000
0.000401 0.000794 0.000000
0.000406 0.000797 0.000000
0.000413 0.000799 0.000000
0.000420 0.000804 0.000000
0.000424 0.000805 0.000000
0.000429 0.000807 0.000000
0.000435 0.000814 0.000000
0.000438 0.000816 0.000000
0.000434 0.000814 0.000000
0.000443 0.000819 0.000000
0.000010 0.000445 0.000000
0.000011 0.000450 0.000000
0.000010 0.000455 0.000000
0.000011 0.000460 0.000000
0.000010 0.000465 0.000000
0.000011 0.000469 0.000000
0.000010 0.000475 0.000000
0.000011 0.000480 0.000000
0.000010 0.000486 0.000000
0.000012 0.000490 0.000000
0.000009 0.000497 0.000000
0.000011 0.000498 0.000000
0.000341 0.000741 0.000000
0.000352 0.000747 0.000000
0.000359 0.000760 0.000000
0.000362 0.000766 0.000000
0.000365 0.000770 0.000000
0.000369 0.000774 0.000000
0.000372 0.000767 0.000000
0.000379 0.000774 0.000000
0.000381 0.000779 0.000000
0.000387 0.000783 0.000000
0.000392 0.000784 0.000000
0.000398 0.000790 0.000000
0.000403 0.000787 0.000000
0.000408 0.000790 0.000000
0.000411 0.000796 0.000000
0.000418 0.000800 0.000000
0.000432 0.000808 0.000000
0.000434 0.000810 0.000000
0.000441 0.000814 0.000000
0.000447 0.000814 0.000000
0.000015 0.000445 0.000000
0.000016 0.000450 0.000000
0.000015 0.000456 0.000000
0.000016 0.000459 0.000000
0.000015 0.000465 0.000000
0.000016 0.000471 0.000000
0.000014 0.000475 0.000000
0.000017 0.000480 0.000000
0.000014 0.000485 0.000000
0.000017 0.000489 0.000000
0.000014 0.000495 0.000000
0.000017 0.000498 0.000000
0.000025 0.000500 0.000000
0.000352 0.000751 0.000000
0.000361 0.000761 0.000000
0.000365 0.000760 0.000000
0.000374 0.000771 0.000000
0.000373 0.000777 0.000000
0.000383 0.000775 0.000000
0.000386 0.000778 0.000000
0.000393 0.000777 0.000000
0.000396 0.000785 0.000000
0.000409 0.000784 0.000000
0.000404 0.000792 0.000000
0.000415 0.000793 0.000000
0.000419 0.000795 0.000000
0.000424 0.000798 0.000000
0.000425 0.000800 0.000000
0.000431 0.000802 0.000000
0.000438 0.000805 0.000000
0.000440 0.000809 0.000000
0.000449 0.000811 0.000000
0.000020 0.000445 0.000000
0.000021 0.000450 0.000000
0.000020 0.000455 0.000000
0.000021 0.000460 0.000000
0.000019 0.000466 0.000000
0.000022 0.000467 0.000000
0.000020 0.000475 0.000000
0.000022 0.000479 0.000000
0.000019 0.000486 0.000000
0.000021 0.000491 0.000000
0.000021 0.000497 0.000000
0.000022 0.000499 0.000000
0.000039 0.000500 0.000000
0.000358 0.000747 0.000000
0.000360 0.000753 0.000000
0.000365 0.000755 0.000000
0.000367 0.000764 0.000000
0.000376 0.000765 0.000000
0.000383 0.000770 0.000000
0.000391 0.000780 0.000000
0.000389 0.000773 0.000000
0.000401 0.000780 0.000000
0.000404 0.000777 0.000000
0.000413 0.000781 0.000000
0.000415 0.000785 0.000000
0.000421 0.000791 0.000000
0.000426 0.000792 0.000000
0.000435 0.000796 0.000000
0.000435 0.000801 0.000000
0.000444 0.000803 0.000000
0.000445 0.000808 0.000000
0.000451 0.000807 0.000000
0.000025 0.000445 0.000000
0.000025 0.000450 0.000000
0.000026 0.000454 0.000000
0.000025 0.000459 0.000000
0.000026 0.000467 0.000000
0.000026 0.000471 0.000000
0.000024 0.000476 0.000000
0.000027 0.000481 0.000000
0.000024 0.000485 0.000000
0.000026 0.000488 0.000000
0.000027 0.000492 0.000000
0.000027 0.000500 0.000000
0.000322 0.000725 0.000000
0.000356 0.000752 0.000000
0.000357 0.000756 0.000000
0.000371 0.000762 0.000000
0.000377 0.000759 0.000000
0.000380 0.000768 0.000000
0.000388 0.000767 0.000000
0.000384 0.000765 0.000000
0.000394 0.000772 0.000000
0.000398 0.000776 0.000000
0.000401 0.000783 0.000000
0.000406 0.000781 0.000000
0.000412 0.000789 0.000000
0.000421 0.000787 0.000000
0.000430 0.000796 0.000000
0.000430 0.000790 0.000000
0.000440 0.000800 0.000000
0.000439 0.000795 0.000000
0.000447 0.000802 0.000000
0.000453 0.000803 0.000000
0.000030 0.000445 0.000000
0.000031 0.000450 0.000000
0.000029 0.000458 0.000000
0.000034 0.000461 0.000000
0.000029 0.000463 0.000000
0.000031 0.000469 0.000000
0.000031 0.000472 0.000000
0.000031 0.000477 0.000000
0.000031 0.000486 0.000000
0.000031 0.000492 0.000000
0.000033 0.000497 0.000000
0.000031 0.000499 0.000000
0.000049 0.000500 0.000000
0.000351 0.000741 0.000000
0.000369 0.000750 0.000000
0.000371 0.000756 0.000000
0.000374 0.000756 0.000000
0.000380 0.000762 0.000000
0.000392 0.000767 0.000000
0.000398 0.000771 0.000000
0.000397 0.000766 0.000000
0.000406 0.000771 0.000000
0.000411 0.000776 0.000000
0.000420 0.000783 0.000000
0.000421 0.000780 0.000000
0.000425 0.000785 0.000000
0.000430 0.000785 0.000000
0.000433 0.000791 0.000000
0.000444 0.000791 0.000000
0.000444 0.000796 0.000000
0.000450 0.000798 0.000000
0.000455 0.000799 0.000000
0.000035 0.000445 0.000000
0.000035 0.000450 0.000000
0.000038 0.000454 0.000000
0.000034 0.000456 0.000000
0.000034 0.000466 0.000000
0.000037 0.000472 0.000000
0.000033 0.000479 0.000000
0.000042 0.000479 0.000000
0.000035 0.000484 0.000000
0.000035 0.000489 0.000000
0.000038 0.000491 0.000000
0.000036 0.000498 0.000000
0.000304 0.000689 0.000000
0.000321 0.000723 0.000000
0.000364 0.000744 0.000000
0.000373 0.000750 0.000000
0.000383 0.000756 0.000000
0.000385 0.000752 0.000000
0.000389 0.000761 0.000000
0.000393 0.000761 0.000000
0.000402 0.000771 0.000000
0.000403 0.000765 0.000000
0.000412 0.000770 0.000000
0.000416 0.000776 0.000000
0.000420 0.000775 0.000000
0.000432 0.000781 0.000000
0.000436 0.000787 0.000000
0.000440 0.000783 0.000000
0.000440 0.000790 0.000000
0.000448 0.000791 0.000000
0.000452 0.000793 0.000000
0.000457 0.000794 0.000000
0.000040 0.000445 0.000000
0.000040 0.000450 0.000000
0.000038 0.000461 0.000000
0.000042 0.000457 0.000000
0.000041 0.000464 0.000000
0.000040 0.000468 0.000000
0.000042 0.000474 0.000000
0.000037 0.000477 0.000000
0.000042 0.000487 0.000000
0.000043 0.000492 0.000000
0.000042 0.000497 0.000000
0.000045 0.000498 0.000000
0.000291 0.000562 0.000000
0.000346 0.000742 0.000000
0.000358 0.000741 0.000000
0.000375 0.000742 0.000000
0.000379 0.000754 0.000000
0.000386 0.000758 0.000000
0.000393 0.000756 0.000000
0.000398 0.000762 0.000000
0.000407 0.000765 0.000000
0.000410 0.000774 0.000000
0.000411 0.000765 0.000000
0.000421 0.000771 0.000000
0.000426 0.000776 0.000000
0.000432 0.000776 0.000000
0.000428 0.000780 0.000000
0.000437 0.000782 0.000000
0.000444 0.000785 0.000000
0.000449 0.000786 0.000000
0.000454 0.000789 0.000000
0.000459 0.000790 0.000000
0.000045 0.000445 0.000000
0.000046 0.000450 0.000000
0.000045 0.000455 0.000000
0.000046 0.000460 0.000000
0.000045 0.000466 0.000000
0.000046 0.000472 0.000000
0.000046 0.000478 0.000000
0.000040 0.000483 0.000000
0.000052 0.000486 0.000000
0.000046 0.000483 0.000000
0.000048 0.000493 0.000000
0.000051 0.000498 0.000000
0.000291 0.000568 0.000000
0.000335 0.000739 0.000000
0.000364 0.000750 0.000000
0.000378 0.000749 0.000000
0.000380 0.000747 0.000000
0.000390 0.000752 0.000000
0.000398 0.000756 0.000000
0.000402 0.000759 0.000000
0.000408 0.000761 0.000000
0.000416 0.000764 0.000000
0.000417 0.000769 0.000000
0.000426 0.000771 0.000000
0.000421 0.000766 0.000000
0.000435 0.000773 0.000000
0.000439 0.000777 0.000000
0.000443 0.000779 0.000000
0.000448 0.000780 0.000000
0.000452 0.000783 0.000000
0.000456 0.000785 0.000000
0.000461 0.000785 0.000000
0.000050 0.000445 0.000000
0.000051 0.000450 0.000000
0.000049 0.000456 0.000000
0.000052 0.000460 0.000000
0.000049 0.000464 0.000000
0.000051 0.000473 0.000000
0.000050 0.000469 0.000000
0.000051 0.000478 0.000000
0.000047 0.000488 0.000000
0.000053 0.000491 0.000000
0.000058 0.000492 0.000000
0.000053 0.000498 0.000000
0.000293 0.000630 0.000000
0.000336 0.000733 0.000000
0.000349 0.000738 0.000000
0.000372 0.000744 0.000000
0.000385 0.000746 0.000000
0.000388 0.000748 0.000000
0.000395 0.000748 0.000000
0.000396 0.000752 0.000000
0.000410 0.000755 0.000000
0.000406 0.000756 0.000000
0.000418 0.000760 0.000000
0.000425 0.000763 0.000000
0.000427 0.000767 0.000000
0.000431 0.000769 0.000000
0.000438 0.000771 0.000000
0.000442 0.000772 0.000000
0.000447 0.000775 0.000000
0.000453 0.000778 0.000000
0.000458 0.000780 0.000000
0.000463 0.000781 0.000000
0.000054 0.000445 0.000000
0.000057 0.000450 0.000000
0.000055 0.000454 0.000000
0.000056 0.000460 0.000000
0.000056 0.000466 0.000000
0.000056 0.000471 0.000000
0.000056 0.000477 0.000000
0.000058 0.000481 0.000000
0.000053 0.000483 0.000000
0.000057 0.000486 0.000000
0.000056 0.000497 0.000000
0.000060 0.000497 0.000000
0.000296 0.000653 0.000000
0.000333 0.000738 0.000000
0.000342 0.000737 0.000000
[...]
POINT_DATA 9387
SCALARS density float 1
LOOKUP_TABLE default
4430.281641
4429.132447
4426.457886
4424.855523
4422.674794
4429.701800
4441.022889
4435.846017
4444.244079
4423.887221
4432.328543
4398.395832
4429.380907
4440.433859
4441.897703
4431.340874
4442.364126
4445.056275
4457.109576
4456.058687
4424.678219
4425.997627
4409.486270
4449.632788
4426.578735
4420.968120
4444.853101
4438.307127
4419.171170
4454.562720
4441.677197
4449.042156
4428.786921
4429.443197
4428.857805
4436.316958
4440.308649
4418.501587
4410.400330
4410.861182
4405.567476
4420.169519
4445.227731
4400.792022
4419.092124
4442.515632
4414.614308
4404.526186
4416.132047
4415.704176
4425.896877
4441.793428
4412.995823
4439.052119
4434.422470
4392.050326
4440.110946
4388.929173
4388.642916
4418.723986
4412.370978
4411.706512
4408.000818
4414.709202
4424.168400
4434.205225
4435.626888
4412.197955
4429.886943
4426.200220
4464.554460
4409.306431
4477.638922
4364.455709
4475.270192
4403.985401
4409.654019
4476.871641
4438.681625
4388.366286
4412.905361
4423.155182
4437.090570
4386.503635
4442.321817
4414.840923
4419.040112
4415.812986
4389.463220
4434.070007
4445.910818
4393.807758
4440.995091
4433.247873
4447.384388
4411.190309
4434.434962
4446.247764
4450.034748
4433.931130
4440.727092
4386.025332
4454.593630
4358.235932
4475.757070
4390.359803
4515.522241
4397.551689
4436.232273
4338.444749
4432.615973
4435.770783
4436.009994
4462.357378
4427.240276
4429.348867
4429.744589
4410.191021
4441.739250
4449.065822
4392.209932
4461.499333
4450.402243
4503.679863
4450.376208
4346.078785
4521.191936
4444.303057
4434.561548
4413.099873
4431.574195
4402.301109
4466.934797
4436.424239
4452.495439
4452.204371
4473.878965
4363.942033
4475.480821
4439.674994
4420.957554
4382.521694
4468.719657
4392.027643
4528.196823
4448.378861
4472.312375
4449.920550
4420.340526
4443.806482
4410.961076
4432.320592
4419.807883
4418.854388
4368.966529
4451.077958
4454.919556
4446.141683
4343.909100
4440.916992
4427.326114
4435.520902
4418.148666
4448.250036
4437.669944
4391.433064
4461.648246
4368.791935
4435.263284
4462.750106
4412.237019
4426.615652
4431.383961
4491.856691
4363.335252
4348.600529
4480.377721
4404.501548
4428.655375
4421.374603
4447.553906
4413.310453
4470.951648
4408.291383
4440.688875
4460.386140
4370.550404
4489.002917
4467.126210
4387.405500
4445.137098
4413.906599
4433.570042
4416.247187
4431.516578
4430.753878
4419.649741
4458.481009
4435.157410
4454.222123
4441.538662
4405.508610
4457.762014
4423.649289
4422.221520
4433.410972
4444.161394
4464.193141
4418.863969
4400.580601
4428.068468
4444.654908
4427.785446
4428.491067
4445.204699
4438.307014
4404.543621
4394.447969
4409.624706
4451.592356
4484.461447
4397.974091
4409.446370
4442.276936
4436.686206
4423.596229
4429.291686
4418.332568
4418.796191
4404.079059
4451.493752
4439.142099
4423.000294
4427.777146
4415.397226
4446.538676
4426.575140
4421.335108
4431.633104
4401.635578
4421.105323
4438.337318
4460.756586
4426.426589
4436.615953
4413.914400
4406.318397
4419.342667
4450.845429
4452.872986
4398.854464
4477.842311
4432.008019
4436.077412
4415.519804
4421.131717
4425.548200
4431.050388
4440.399364
4395.412452
4439.677291
4447.929050
4455.731774
4415.898675
4448.821043
4433.209675
4433.890502
4422.158074
4595.989755
4374.202869
4443.435206
4437.931473
4395.787253
4416.588167
4421.174464
4440.836801
4421.653176
4462.159950
4456.220338
4444.087298
4421.080815
4402.311307
4455.755881
4424.539101
4388.886152
4411.033043
4425.454483
4436.284066
4428.529300
4411.686944
4438.486041
4428.847958
4424.348716
4385.987192
4445.873293
4423.737462
4450.536526
4416.505994
4467.084855
4440.980443
4508.436698
4415.536964
4424.654089
4461.780937
4441.341921
4424.611892
4436.009578
4433.149831
4420.366081
4444.653885
4415.936999
4410.452338
4404.894890
4442.205101
4400.916770
4429.891040
4436.067630
4470.778627
4416.524535
4416.542080
4433.230668
4417.297807
4439.333185
4429.091428
4422.125168
4453.342601
4451.178012
4384.884117
4386.465336
4410.322773
4528.530622
4414.967624
4436.790261
4480.123605
4443.288998
4449.407727
4441.474794
4425.799426
4448.598587
4445.434716
4474.766278
4441.642124
4445.080591
4397.420593
4469.603181
4440.928038
4466.675751
4449.520905
4447.879584
4406.021811
4429.055360
4431.243325
4430.317330
4428.219730
4419.724955
4436.796335
4411.939925
4442.788806
4407.076854
4434.362671
4480.441952
4360.115973
4420.099898
4396.048444
4425.997575
4413.106530
4500.622058
4422.821214
4450.624326
4420.190831
4467.054861
4422.468986
4394.075456
4437.161824
4455.822808
4401.424557
4443.163803
4404.645326
4420.102295
4433.090551
4438.226592
4436.466634
4435.923371
4416.863411
4423.956900
4406.370754
4442.968438
4398.685223
4439.100220
4434.984715
4416.605235
4412.071742
4472.670053
4410.800627
4445.554288
4434.859168
4416.531864
4434.352349
4436.853775
4404.609428
4398.918711
4442.811513
4402.290605
4443.332922
4397.633861
4424.880915
4424.179706
4434.511285
4439.375977
4452.194205
4461.850867
4442.446044
4424.275491
4425.435939
4420.679559
4432.752006
4440.070325
4421.985785
4424.745600
4441.364847
4427.285792
4406.522024
4450.202881
4415.687174
4442.907680
4366.185899
4469.208256
4427.822916
4434.220352
4424.878646
4432.972053
4407.406716
4427.159322
4428.750650
4450.340142
4420.934612
4430.947377
4433.571256
4445.578038
4443.623968
4409.912383
4416.938651
4398.215094
4442.273100
4423.987453
4437.434483
4424.975564
4425.585236
4416.937162
4422.397594
4416.918096
4407.956192
4435.192623
4417.718558
4428.413049
4439.140950
4388.568969
4405.322665
4430.634672
4455.918236
4541.063335
4422.463838
4413.714530
4462.929123
4446.478257
4397.538737
4442.211360
4472.053823
4394.468453
4438.374086
4456.085060
4400.542446
4396.125505
4449.115712
4425.361464
4439.097728
4424.630113
4426.442453
4429.570579
4428.323013
4447.842582
4419.818401
4413.395890
4445.964097
4449.946833
4402.739563
4436.925124
4450.737947
4478.962475
4352.364530
4440.188596
4449.330018
4420.136740
4420.991984
4424.256898
4347.681199
4451.971397
4481.179145
4446.152539
4441.207156
4418.008042
4428.062920
4419.027388
4447.230684
4472.202365
4460.144582
4443.093546
4412.775804
4418.910308
4429.416869
4422.452582
4425.980405
4417.408607
4426.962493
4433.199512
4421.859604
4405.078379
4442.164107
4434.126283
4429.697065
4457.556239
4476.479874
4422.341597
4417.406814
4420.195078
4432.270957
4466.908559
4428.191267
4441.030648
4429.241004
4441.256972
4415.859457
4413.504180
4473.763629
4425.288748
4429.080062
4417.014115
4440.322014
4422.004320
4435.403842
4439.113200
4441.956325
4428.771325
4431.011584
4449.219139
4431.416968
4416.970030
4446.929267
4452.618509
4397.294966
4430.045538
4434.092953
4381.659123
4372.262630
4437.788691
4457.165278
4494.053346
4480.550903
4481.897408
4433.360762
4431.497787
4381.505751
4464.903933
4461.470170
4447.244195
4482.689512
4459.138452
4439.412856
4413.744759
4459.428324
4408.153819
4434.252643
4404.164928
4426.073534
4428.810203
4428.987745
4415.997612
4433.093629
4446.003471
4410.349736
4406.529628
4454.098179
4433.081054
4459.977142
4440.889914
4436.614334
4394.695916
4428.545298
4415.556851
4417.370015
4427.770183
4405.585978
4430.163185
4401.008439
4447.508566
4416.205774
4418.787634
4402.107425
4417.107953
4416.805792
4443.780309
4412.830312
4460.339220
4428.377595
4454.088729
4436.656704
4417.866340
4428.773065
4445.649390
4437.234042
4411.553933
4435.216813
4428.572091
4408.039436
4425.251677
4400.026884
4475.411583
4439.192883
4427.228634
4432.936475
4411.346493
4414.639818
4482.193698
4433.996710
4410.431459
4445.182278
4436.191164
4381.992164
4493.771773
4422.449411
4472.668114
4411.263404
4461.308096
4401.437236
4421.521791
4412.051530
4406.543160
4434.266172
4427.281412
4428.090097
4420.465796
4429.600529
4427.982772
4423.191076
4429.461083
4432.299593
4401.079568
4386.374590
4457.544080
4484.435143
4378.040404
4554.058648
4423.528189
4418.112711
4427.233954
4462.112834
4417.294391
4436.063023
4408.286984
4479.540622
4447.060160
4481.106502
4447.745269
4415.021329
4451.612151
4449.538342
4415.851814
4480.371748
4437.691851
4406.074964
4439.118272
4419.658322
4446.261188
4438.830862
4407.117887
4418.832871
4438.435394
4434.529293
4417.509342
4425.518525
4477.449139
4386.606601
4428.985227
4433.328293
4445.960346
4427.648722
4420.024765
4404.919058
4436.803181
4463.313700
4493.891684
4454.895557
4414.501793
4365.261502
4424.928008
4440.072634
4457.438050
4414.306722
4437.444969
4422.643210
4427.240355
4425.038366
4431.748644
4435.450866
4430.372311
4430.717015
4441.395704
4443.024011
4407.373952
4416.243096
4428.999805
4395.996994
4437.763660
4389.894877
4357.690213
4482.265517
4425.751763
4405.527704
4434.046863
4445.773072
4456.260126
4445.720834
4427.845522
4420.498642
4391.889177
4378.816737
4380.186674
4451.900505
4415.955036
4411.411183
4458.909660
4428.391461
4472.683013
4420.406521
4411.318495
4427.143509
4435.551599
4440.976843
4413.879498
4416.220815
4434.615618
4424.215751
4406.611335
4437.089492
4455.512963
4463.819717
4412.610564
4428.325137
4399.041189
4444.701616
4375.840314
4352.141644
4474.669074
4448.715173
4429.511791
4423.190147
4445.208366
4428.346471
4406.409259
4431.137553
4455.068169
4447.058811
4420.289369
4433.517260
4419.438714
4409.940245
4450.536047
4422.996046
4417.029570
4428.411877
4427.991915
4428.471746
4429.047828
4429.136602
4429.544198
4429.629983
4430.014028
4430.136219
4430.619406
4430.733804
4430.985776
4431.063376
4430.245940
4420.631072
4427.161734
4427.196063
4428.068656
4428.698113
4428.888985
4429.531034
4429.505040
4429.988244
4429.842745
4430.112674
4430.060089
4430.448159
4430.581042
4430.239231
4423.380335
4427.005349
4426.878193
4427.401023
4428.328780
4428.160950
4428.979796
4428.720965
4429.540873
4429.364579
4430.234574
4429.884667
4430.005364
4429.750487
4429.425963
4424.590980
4427.324403
4427.266646
4427.796183
4428.325673
4428.545666
4429.006240
4429.087015
4429.432832
4429.135390
4429.311064
4428.792215
4429.379725
4428.315199
4429.460789
4425.954744
4427.533311
4427.397738
4427.542966
4428.040939
4427.963741
4428.567542
4428.367149
4428.923442
4428.941400
4429.515189
4429.126874
4429.509135
4427.885247
4428.606309
4426.289259
4427.741230
4427.812508
4427.655621
4428.524373
4428.154846
4428.946147
4428.539800
4429.294259
4428.501164
4428.930864
4428.354002
4428.352776
4427.770968
4428.998423
4426.624829
4427.925542
4427.680476
4427.740130
4427.937627
4427.869473
4428.315968
4428.166811
4428.547591
4428.678642
4429.245112
4428.829095
4429.225826
4427.553855
4428.257973
4426.896630
4428.131394
4427.819327
4427.929417
4428.265441
4428.291673
4428.529077
4428.519262
4428.884407
4428.465958
4428.690709
4428.208445
4428.936064
4427.216223
4428.868280
4426.844202
4428.047126
4427.860080
4427.660684
4427.984497
4427.645746
4428.233226
4427.869974
4428.490563
4428.352790
4429.394162
4429.049564
4429.779212
4428.963868
4428.907401
4427.170350
4428.181549
4427.876815
4427.923612
4428.187313
4428.152696
4428.355916
4428.345463
4428.523095
4428.564543
4428.366495
4428.863938
4429.301415
4430.019685
4431.237357
4426.835281
4428.181299
4427.709365
4427.714627
4427.697927
4427.696499
4427.749032
4427.803116
4428.046724
4428.225759
4429.067517
4429.237823
4430.505898
4430.387764
4431.308946
4426.933341
4428.314525
4427.605628
4427.954729
4427.951351
4427.925683
4428.085615
4427.971058
4428.250308
4428.040062
4428.245370
4428.175177
4429.115606
4430.278266
4430.955276
4426.945958
4428.104880
4427.638134
4427.682556
4427.379503
4427.602135
4427.317040
4427.642721
4427.414886
4427.994685
4427.951135
4428.754131
4428.933999
4429.379468
4430.896160
4427.174343
4433.876338
4425.743844
4455.629510
4429.190827
4458.804975
4427.779398
4417.650850
4408.565857
4416.085800
4410.316014
4428.094702
4420.378621
4445.779174
4429.891011
4412.798206
4426.928632
4428.123929
4427.635460
4427.630102
4427.825291
4427.641913
4427.687901
4427.645223
4427.597467
4427.319395
4427.298861
4427.041631
4426.869345
4427.716332
4428.064579
4424.953285
4443.703726
4422.083609
4419.534542
4419.347874
4439.312166
4432.618698
4407.955049
4438.983551
4439.222053
4412.656566
4445.094635
4420.126856
4461.034781
4391.292785
4398.308005
4426.557242
4427.840521
4427.597223
4427.304711
4427.445196
4426.798657
4427.467691
4426.469796
4427.304748
4426.642980
4427.491377
4426.750851
4427.620110
4425.889663
4427.270667
4421.898727
4446.989972
4429.877077
4444.228372
4397.231909
4444.375181
4420.003364
4423.162923
4415.424490
4412.189218
4469.118702
4420.863139
4416.068411
4453.899906
4371.636637
4442.089409
4426.630730
4427.822608
4427.714718
4427.083595
4427.757639
4427.151763
4427.362580
4427.001379
4427.167234
4426.293166
4426.678063
4425.342623
4425.874080
4423.234566
4426.983740
4408.045387
4398.573099
4416.934059
4380.011796
4406.733721
4442.585015
4430.279276
4456.945077
4441.222816
4407.533590
4438.296394
4413.175597
4398.688329
4397.221074
4402.617090
4428.443641
4426.162903
4427.884772
4427.156810
4427.280901
4427.018903
4426.557949
4426.916452
4426.270502
4426.508979
4426.367383
4426.237363
4425.539436
4425.781612
4423.158085
4421.500473
4444.153809
4453.228868
4423.050653
4449.271887
4460.056255
4429.675749
4452.459430
4430.859325
4407.464287
4457.784532
4441.769719
4448.992901
4403.848979
4417.845850
4436.934092
4411.009413
4426.134497
4427.933732
4427.100418
4427.324365
4426.918556
4427.256273
4426.756954
4426.779608
4426.620209
4425.779375
4425.703948
4424.935668
4424.093630
4423.194751
4422.439781
4415.298615
4394.848671
4451.830690
4437.531825
4492.206160
4380.804776
4449.554651
4408.404785
4409.353589
4380.292512
4380.998764
4451.096673
4402.134140
4450.439456
4451.874778
4427.886254
4426.183325
4427.572528
4427.295654
4426.734947
4427.015618
4426.387179
4426.471377
4426.462191
4425.791804
4426.429348
4425.324432
4425.485489
4425.086555
4423.432787
4423.481612
4452.236671
4441.172658
4450.410864
4380.575418
4336.690527
4439.981718
4522.702676
4515.263815
4467.146918
4424.915173
4398.906310
4410.379382
4497.391608
4449.740362
4491.866782
4397.118239
4425.976736
4427.720026
4427.014364
4427.148317
4426.907068
4426.784673
4427.056753
4426.094100
4426.756177
4425.223363
4425.989362
4424.683099
4424.670448
4424.780896
4424.401478
4434.791986
4420.188681
4435.530362
4404.145561
4407.457145
4462.102511
4455.922445
4457.379972
4398.700681
4409.051687
4422.284065
4430.648093
4396.498281
4461.953685
4397.277708
4429.019532
4425.846601
4427.453092
4427.174056
4426.517401
4427.054789
4426.267629
4426.639069
4425.980210
4426.367245
4425.703405
4425.984354
4425.603905
4425.855953
4425.362051
4426.135465
4426.992782
4454.963306
4399.838250
4435.930242
4411.531234
4433.370004
4454.411535
4425.854100
4418.096388
4436.698677
4425.394367
4398.672138
4424.001081
4439.446537
4390.595557
4419.636473
4425.880977
4427.385274
4427.293696
4426.614364
4427.309206
4426.375699
4426.939197
4426.281917
4425.976764
4425.650776
4425.729319
4424.588585
4425.988075
4423.997524
4426.225085
4420.248310
4428.819882
4439.177061
4439.392345
4379.735928
4405.733162
4458.428667
4500.820521
4431.941207
4415.316265
4421.397795
4440.506176
4378.454007
4452.755945
4418.961934
4443.288775
4425.833717
4427.549299
4426.862664
4426.976930
4426.516989
4426.466948
4426.439633
4425.416562
4426.496445
4425.200068
4425.986493
4425.631278
4425.126892
4423.960849
4424.708973
4434.452902
4427.064366
4436.177302
4420.031262
4430.191104
4427.971934
4465.120140
4469.213318
4383.163753
4420.979285
4408.737048
4444.817104
4442.995580
4425.308618
4363.857162
4398.377019
4425.899983
4427.412429
4427.147682
4426.483273
4427.138021
4426.158083
4426.528992
4426.223143
4425.765683
4425.670233
4425.965403
4424.533026
4425.291246
4423.789749
4422.668692
4443.101090
4441.584759
4414.279790
4428.354369
4399.410325
4418.489277
4450.693749
4458.696248
4474.829855
4464.208376
4438.549268
4390.650959
4418.267483
4386.662714
4310.339242
4464.953901
4425.954332
4427.233332
4427.304128
4426.307145
4426.911850
4425.886194
4426.592922
4425.541241
4426.538048
4426.082072
4425.803970
4425.727035
4425.083804
4424.815869
4425.665911
4433.118849
4413.240601
4418.321665
4410.086365
4391.746624
4442.156783
4456.443477
4446.272383
4410.152655
4401.408708
4461.392275
4461.439354
4438.740139
4405.486089
4458.065960
4470.110242
4425.909154
4427.616600
4426.737274
4427.083043
4426.557442
4426.653512
4426.768906
4426.335208
4426.667633
4425.156985
4426.195525
4424.622853
4425.512491
4423.803062
4425.881428
4443.141694
4419.881940
4410.990106
4442.294763
4422.009930
4424.293743
4502.679369
4404.893169
4479.012305
4459.456122
4454.274891
4426.428785
4449.845128
4423.193631
4419.993616
4446.520586
4425.704738
4427.493585
4427.082871
4426.372595
4427.087524
4426.392138
4426.501388
4426.322270
4425.861023
4426.139662
4425.373682
4425.231551
4426.096565
4425.297222
4425.009347
4425.235780
4433.322286
4403.383025
4431.920110
4466.103351
4485.178432
4451.573678
4468.397805
4431.853462
4461.387201
4460.741317
4435.994902
4454.845399
4429.764683
4395.589001
4422.504211
4425.926223
4427.445009
4427.069469
4427.086959
4426.997062
4426.619347
4427.062491
4426.086771
4426.657792
4425.230193
4426.276577
4425.522244
4425.696748
4425.711764
4425.275416
4431.090126
4444.741139
4433.622614
4405.640396
4382.564487
4416.836956
4456.621610
4475.677059
4467.183781
4449.994109
4463.802793
4465.861309
4438.951146
4389.117822
4434.942510
4421.019873
4425.882144
4427.765882
4426.931493
4427.079485
4426.820397
4426.964892
4426.663453
4426.679060
4426.545154
4426.692675
4426.189364
4426.403061
4426.338503
4425.519611
4427.646773
4424.398804
4426.922195
4430.628264
4474.473087
4424.427386
4308.374447
4480.953172
4514.447545
4461.930661
4457.296138
4467.515780
4455.394026
4456.287265
4427.348443
4376.362405
4415.227565
4425.990893
4427.582641
4427.227897
4426.906265
4427.358935
4426.676832
4426.947332
4426.647925
4426.284904
4425.591188
4426.027404
4425.097365
4426.148741
4425.372995
4423.153034
4443.125302
4418.894578
4437.951128
4432.366152
4469.984160
4470.014577
4490.147810
4470.541349
4470.479145
4460.973852
4435.534819
4450.462109
4477.468541
4463.373889
4453.293055
4404.781737
4426.139322
4427.468257
4427.443900
4427.009637
4427.005716
4426.419278
4426.950081
4425.580404
4426.435232
4425.640431
4426.246859
4425.954471
4426.482279
4424.939532
4426.511468
4422.404886
4425.695188
4446.000551
4454.063589
4482.529769
4437.120107
4470.850253
4486.053853
4478.051170
4451.515877
4399.518558
4402.679787
4386.115277
4444.608105
4430.418996
4419.704279
4426.078501
4427.912199
4427.214904
4427.007764
4427.127778
4426.799202
4426.719262
4426.842382
4426.642458
4426.401055
4426.205839
4426.377422
4425.271404
4424.116538
4427.582844
4428.932111
4440.669234
4419.829144
4437.358090
4436.498173
4444.809643
4466.659482
4462.478930
4450.909028
4476.385210
4462.574368
4425.314008
4380.594185
4395.910498
4337.652817
4419.961911
4426.068264
4427.796691
4427.305293
4427.132170
4427.314629
4426.840741
4427.495707
4426.825285
4427.188794
4426.883788
4427.288130
4424.715914
4427.208143
4426.728695
4422.798582
4430.104541
4429.308070
4435.566859
4429.462853
4420.793379
4439.397488
4463.329593
4459.484914
4457.384793
4460.519424
4472.746738
4446.355706
4433.821219
4421.950261
4470.248451
4414.071015
4426.230722
4427.989252
4427.529443
4427.569762
4427.394963
4427.550916
4427.185010
4426.882388
4427.210393
4425.955996
4425.038684
4425.908894
4425.477811
4424.554090
4427.028864
4414.476878
4441.871805
4412.824549
4428.898218
4428.947921
4400.946370
4456.033994
4440.548832
4430.357617
4458.859944
4442.450249
4454.376994
4427.994661
4438.447952
4422.222181
4435.944705
4426.466984
4428.451395
4427.289104
4427.919703
4427.277204
4427.571603
4426.763035
4427.653525
4425.943033
4427.247604
4425.546706
4424.739935
4425.025378
4427.192422
4427.485452
4438.943992
4425.650395
4425.092172
4429.518351
4449.722949
4442.799848
4459.170832
4412.572736
4460.374867
4422.896255
4476.375528
4449.434287
4422.344887
4424.034893
4356.949179
4407.674995