# vtk DataFile Version 2.0
mfree iwf
ASCII

DATASET UNSTRUCTURED_GRID
POINTS 11907 float
-0.000000 0.000445 0.000000
-0.000000 0.000450 0.000000
-0.000000 0.000455 0.000000
-0.000000 0.000460 0.000000
-0.000000 0.000465 0.000000
-0.000000 0.000470 0.000000
-0.000000 0.000475 0.000000
-0.000000 0.000480 0.000000
-0.000000 0.000485 0.000000
0.000000 0.000490 0.000000
-0.000001 0.000496 0.000000
0.000002 0.000500 0.000000
0.001343 0.001080 0.000000
0.001351 0.001077 0.000000
0.001393 0.001054 0.000000
0.001397 0.001050 0.000000
0.001397 0.001050 0.000000
0.001403 0.001047 0.000000
0.001409 0.001042 0.000000
0.001405 0.001045 0.000000
0.001417 0.001037 0.000000
0.001439 0.001021 0.000000
0.001443 0.001015 0.000000
0.001445 0.001012 0.000000
0.001448 0.001008 0.000000
0.001451 0.001004 0.000000
0.001454 0.000999 0.000000
0.001456 0.000995 0.000000
0.001458 0.000991 0.000000
0.001462 0.000986 0.000000
0.001465 0.000981 0.000000
0.001482 0.000967 0.000000
0.000005 0.000445 0.000000
0.000005 0.000450 0.000000
0.000005 0.000455 0.000000
0.000005 0.000460 0.000000
0.000005 0.000465 0.000000
0.000005 0.000470 0.000000
0.000005 0.000475 0.000000
0.000005 0.000480 0.000000
0.000005 0.000485 0.000000
0.000006 0.000489 0.000000
0.000003 0.000496 0.000000
0.000006 0.000499 0.000000
0.001388 0.001055 0.000000
0.001390 0.001046 0.000000
0.001422 0.001031 0.000000
0.001427 0.001027 0.000000
0.001431 0.001024 0.000000
0.001434 0.001021 0.000000
0.001435 0.001019 0.000000
0.001437 0.001015 0.000000
0.001440 0.001012 0.000000
0.001443 0.001006 0.000000
0.001448 0.001000 0.000000
0.001450 0.000995 0.000000
0.001453 0.000989 0.000000
0.001459 0.000982 0.000000
0.001461 0.000978 0.000000
0.001465 0.000974 0.000000
0.001474 0.000968 0.000000
0.001476 0.000967 0.000000
0.001472 0.000971 0.000000
0.001479 0.000965 0.000000
0.000010 0.000445 0.000000
0.000010 0.000450 0.000000
0.000010 0.000455 0.000000
0.000010 0.000460 0.000000
0.000010 0.000465 0.000000
0.000010 0.000469 0.000000
0.000010 0.000475 0.000000
0.000010 0.000479 0.000000
0.000009 0.000486 0.000000
0.000012 0.000489 0.000000
0.000008 0.000497 0.000000
0.000011 0.000498 0.000000
0.001386 0.001052 0.000000
0.001393 0.001043 0.000000
0.001408 0.001037 0.000000
0.001415 0.001034 0.000000
0.001419 0.001031 0.000000
0.001423 0.001028 0.000000
0.001413 0.001028 0.000000
0.001420 0.001023 0.000000
0.001425 0.001020 0.000000
0.001430 0.001016 0.000000
0.001437 0.001008 0.000000
0.001441 0.001003 0.000000
0.001440 0.000997 0.000000
0.001444 0.000993 0.000000
0.001449 0.000991 0.000000
0.001456 0.000984 0.000000
0.001466 0.000972 0.000000
0.001468 0.000970 0.000000
0.001472 0.000963 0.000000
0.001472 0.000958 0.000000
0.000015 0.000445 0.000000
0.000016 0.000450 0.000000
0.000014 0.000456 0.000000
0.000017 0.000460 0.000000
0.000014 0.000469 0.000000
0.000016 0.000465 0.000000
0.000014 0.000476 0.000000
0.000017 0.000480 0.000000
0.000014 0.000484 0.000000
0.000016 0.000489 0.000000
0.000014 0.000495 0.000000
0.000016 0.000497 0.000000
0.000025 0.000500 0.000000
0.001397 0.001043 0.000000
0.001410 0.001035 0.000000
0.001404 0.001033 0.000000
0.001416 0.001025 0.000000
0.001427 0.001025 0.000000
0.001426 0.001016 0.000000
0.001432 0.001011 0.000000
0.001428 0.001009 0.000000
0.001434 0.001005 0.000000
0.001439 0.000991 0.000000
0.001444 0.001000 0.000000
0.001447 0.000985 0.000000
0.001452 0.000985 0.000000
0.001452 0.000980 0.000000
0.001455 0.000978 0.000000
0.001458 0.000972 0.000000
0.001462 0.000969 0.000000
0.001464 0.000964 0.000000
0.001470 0.000955 0.000000
0.000019 0.000445 0.000000
0.000021 0.000450 0.000000
0.000018 0.000455 0.000000
0.000022 0.000459 0.000000
0.000019 0.000469 0.000000
0.000024 0.000468 0.000000
0.000018 0.000475 0.000000
0.000022 0.000479 0.000000
0.000019 0.000486 0.000000
0.000021 0.000490 0.000000
0.000020 0.000497 0.000000
0.000022 0.000499 0.000000
0.000039 0.000500 0.000000
0.001390 0.001033 0.000000
0.001398 0.001037 0.000000
0.001405 0.001028 0.000000
0.001410 0.001031 0.000000
0.001419 0.001018 0.000000
0.001416 0.001014 0.000000
0.001428 0.001006 0.000000
0.001420 0.001012 0.000000
0.001430 0.001001 0.000000
0.001429 0.000992 0.000000
0.001432 0.000986 0.000000
0.001438 0.000986 0.000000
0.001446 0.000980 0.000000
0.001449 0.000970 0.000000
0.001456 0.000969 0.000000
0.001457 0.000964 0.000000
0.001464 0.000959 0.000000
0.001468 0.000960 0.000000
0.001466 0.000953 0.000000
0.000024 0.000445 0.000000
0.000026 0.000450 0.000000
0.000024 0.000455 0.000000
0.000026 0.000461 0.000000
0.000021 0.000464 0.000000
0.000026 0.000472 0.000000
0.000022 0.000476 0.000000
0.000027 0.000481 0.000000
0.000023 0.000485 0.000000
0.000026 0.000488 0.000000
0.000026 0.000492 0.000000
0.000027 0.000500 0.000000
0.001370 0.001067 0.000000
0.001399 0.001040 0.000000
0.001403 0.001038 0.000000
0.001414 0.001020 0.000000
0.001410 0.001023 0.000000
0.001425 0.001013 0.000000
0.001422 0.001006 0.000000
0.001412 0.001017 0.000000
0.001418 0.001003 0.000000
0.001436 0.001002 0.000000
0.001433 0.000995 0.000000
0.001435 0.000997 0.000000
0.001444 0.000989 0.000000
0.001443 0.000982 0.000000
0.001453 0.000973 0.000000
0.001448 0.000975 0.000000
0.001460 0.000962 0.000000
0.001452 0.000965 0.000000
0.001460 0.000956 0.000000
0.001461 0.000950 0.000000
0.000030 0.000445 0.000000
0.000031 0.000450 0.000000
0.000029 0.000455 0.000000
0.000031 0.000459 0.000000
0.000031 0.000465 0.000000
0.000028 0.000468 0.000000
0.000031 0.000472 0.000000
0.000030 0.000477 0.000000
0.000030 0.000486 0.000000
0.000031 0.000491 0.000000
0.000033 0.000497 0.000000
0.000030 0.000499 0.000000
0.000048 0.000500 0.000000
0.001388 0.001040 0.000000
0.001398 0.001027 0.000000
0.001406 0.001023 0.000000
0.001402 0.001023 0.000000
0.001408 0.001018 0.000000
0.001412 0.001007 0.000000
0.001424 0.000994 0.000000
0.001425 0.001002 0.000000
0.001427 0.000997 0.000000
0.001435 0.000990 0.000000
0.001435 0.000976 0.000000
0.001440 0.000981 0.000000
0.001440 0.000976 0.000000
0.001443 0.000967 0.000000
0.001446 0.000972 0.000000
0.001450 0.000960 0.000000
0.001455 0.000959 0.000000
0.001458 0.000953 0.000000
0.001458 0.000947 0.000000
0.000035 0.000445 0.000000
0.000035 0.000450 0.000000
0.000034 0.000457 0.000000
0.000038 0.000454 0.000000
0.000035 0.000467 0.000000
0.000036 0.000472 0.000000
0.000032 0.000479 0.000000
0.000041 0.000479 0.000000
0.000034 0.000483 0.000000
0.000034 0.000488 0.000000
0.000037 0.000491 0.000000
0.000036 0.000498 0.000000
0.001330 0.001082 0.000000
0.001366 0.001070 0.000000
0.001395 0.001031 0.000000
0.001397 0.001021 0.000000
0.001410 0.001012 0.000000
0.001397 0.001011 0.000000
0.001417 0.001008 0.000000
0.001414 0.001002 0.000000
0.001421 0.000999 0.000000
0.001412 0.000993 0.000000
0.001418 0.000985 0.000000
0.001428 0.000978 0.000000
0.001434 0.000981 0.000000
0.001437 0.000972 0.000000
0.001447 0.000963 0.000000
0.001437 0.000957 0.000000
0.001449 0.000952 0.000000
0.001451 0.000956 0.000000
0.001454 0.000950 0.000000
0.001454 0.000944 0.000000
0.000040 0.000445 0.000000
0.000041 0.000450 0.000000
0.000036 0.000461 0.000000
0.000040 0.000458 0.000000
0.000041 0.000463 0.000000
0.000039 0.000468 0.000000
0.000041 0.000473 0.000000
0.000037 0.000477 0.000000
0.000041 0.000487 0.000000
0.000042 0.000491 0.000000
0.000041 0.000497 0.000000
0.000044 0.000498 0.000000
0.001176 0.001062 0.000000
0.001386 0.001048 0.000000
0.001387 0.001037 0.000000
0.001392 0.001018 0.000000
0.001405 0.001014 0.000000
0.001405 0.001009 0.000000
0.001408 0.001007 0.000000
0.001417 0.000996 0.000000
0.001422 0.000987 0.000000
0.001427 0.000988 0.000000
0.001420 0.000993 0.000000
0.001419 0.000973 0.000000
0.001428 0.000970 0.000000
0.001433 0.000966 0.000000
0.001439 0.000970 0.000000
0.001438 0.000965 0.000000
0.001444 0.000961 0.000000
0.001445 0.000955 0.000000
0.001450 0.000948 0.000000
0.001450 0.000941 0.000000
0.000044 0.000445 0.000000
0.000046 0.000450 0.000000
0.000045 0.000455 0.000000
0.000046 0.000461 0.000000
0.000044 0.000467 0.000000
0.000047 0.000474 0.000000
0.000045 0.000478 0.000000
0.000039 0.000483 0.000000
0.000052 0.000485 0.000000
0.000045 0.000483 0.000000
0.000048 0.000493 0.000000
0.000050 0.000498 0.000000
0.001182 0.001065 0.000000
0.001384 0.001057 0.000000
0.001400 0.001031 0.000000
0.001402 0.001017 0.000000
0.001398 0.001015 0.000000
0.001409 0.001001 0.000000
0.001405 0.000999 0.000000
0.001412 0.000996 0.000000
0.001411 0.000987 0.000000
0.001423 0.000983 0.000000
0.001429 0.000983 0.000000
0.001432 0.000971 0.000000
0.001424 0.000975 0.000000
0.001431 0.000964 0.000000
0.001440 0.000961 0.000000
0.001440 0.000954 0.000000
0.001440 0.000950 0.000000
0.001444 0.000949 0.000000
0.001446 0.000945 0.000000
0.001445 0.000939 0.000000
0.000049 0.000445 0.000000
0.000053 0.000450 0.000000
0.000049 0.000454 0.000000
0.000053 0.000455 0.000000
0.000048 0.000465 0.000000
0.000048 0.000471 0.000000
0.000053 0.000468 0.000000
0.000051 0.000478 0.000000
0.000047 0.000488 0.000000
0.000052 0.000491 0.000000
0.000057 0.000492 0.000000
0.000053 0.000498 0.000000
0.001273 0.001086 0.000000
0.001375 0.001056 0.000000
0.001383 0.001044 0.000000
0.001393 0.001022 0.000000
0.001399 0.001007 0.000000
0.001404 0.001004 0.000000
0.001398 0.001003 0.000000
0.001402 0.000998 0.000000
0.001407 0.000987 0.000000
0.001416 0.000989 0.000000
0.001411 0.000984 0.000000
0.001420 0.000979 0.000000
0.001418 0.000967 0.000000
0.001430 0.000976 0.000000
0.001427 0.000960 0.000000
0.001427 0.000952 0.000000
0.001432 0.000959 0.000000
0.001437 0.000947 0.000000
0.001442 0.000942 0.000000
0.001441 0.000936 0.000000
0.000053 0.000445 0.000000
0.000058 0.000450 0.000000
0.000055 0.000462 0.000000
0.000050 0.000460 0.000000
0.000060 0.000466 0.000000
0.000054 0.000473 0.000000
0.000057 0.000476 0.000000
0.000057 0.000480 0.000000
0.000052 0.000483 0.000000
0.000057 0.000486 0.000000
0.000056 0.000497 0.000000
0.000059 0.000496 0.000000
0.001296 0.001085 0.000000
0.001384 0.001059 0.000000
[...]
POINT_DATA 11907
SCALARS density float 1
LOOKUP_TABLE default
4427.480766
4429.993656
4425.448552
4429.202239
4431.917931
4426.632193
4436.819425
4428.600989
4431.446345
4419.793979
4429.777956
4405.747957
4431.280911
4417.989375
4415.078239
4441.680776
4439.455525
4434.935984
4452.183448
4452.928732
4427.583100
4414.455225
4398.240829
4447.027883
4424.236008
4432.896462
4449.955926
4419.503162
4436.835441
4449.743210
4426.602443
4403.120846
4431.824132
4431.725486
4430.163793
4425.611228
4431.562235
4420.293365
4424.784882
4420.646611
4423.079584
4429.561460
4448.809482
4408.692261
4411.272115
4423.281920
4423.019677
4412.952233
4424.381410
4434.558326
4447.616933
4470.964981
4439.911338
4413.591755
4426.187170
4393.812829
4431.219345
4398.615397
4438.865637
4459.390793
4431.433890
4433.188596
4411.247178
4396.596121
4420.539778
4425.658001
4432.721856
4421.497927
4431.999646
4425.020984
4456.579819
4399.380514
4468.000629
4384.156689
4447.851835
4403.220636
4468.727658
4444.018624
4432.835909
4396.535930
4418.135532
4412.283187
4470.144712
4454.743735
4435.219384
4377.493672
4425.847873
4438.425376
4393.705473
4456.287629
4428.774414
4378.224198
4418.584822
4423.003307
4446.541052
4415.501390
4424.814918
4437.811845
4445.037256
4417.809891
4416.039315
4449.168638
4448.494313
4390.540351
4463.877843
4386.431086
4508.582976
4406.243432
4434.352336
4392.628448
4411.374207
4468.106909
4446.087693
4434.555005
4451.007353
4371.223195
4443.450439
4425.576859
4416.386690
4433.831542
4398.206116
4484.476599
4427.671549
4480.192603
4433.553894
4371.382330
4493.733379
4436.801368
4436.545399
4421.001640
4440.070115
4431.539869
4408.610970
4431.907744
4436.111287
4434.135728
4478.962347
4374.633791
4460.562638
4432.828946
4417.563597
4435.764734
4468.392633
4381.060111
4467.707667
4391.291341
4448.455609
4444.679188
4432.297051
4382.450777
4418.243492
4443.659383
4422.608544
4427.043934
4452.223502
4478.362852
4429.346250
4409.540438
4390.485866
4424.642584
4433.135081
4430.987321
4441.138161
4414.121500
4439.411123
4419.815541
4453.213381
4384.637131
4418.476712
4460.613361
4427.088799
4422.638832
4434.383692
4432.236853
4367.254722
4435.213408
4394.773915
4458.030721
4369.319083
4471.537645
4474.832111
4455.475690
4448.928697
4451.928055
4442.560118
4447.028428
4370.999565
4429.282238
4424.987986
4390.188781
4460.039893
4428.224360
4422.853230
4430.710709
4415.559100
4439.016300
4432.703697
4449.996999
4398.953540
4451.447740
4447.508615
4407.714863
4451.102679
4417.551810
4416.184807
4445.992519
4461.667338
4462.246402
4417.751009
4424.118816
4419.602156
4423.642559
4453.100855
4447.143501
4427.666335
4430.115602
4463.688764
4374.322256
4393.677985
4447.307032
4453.607958
4415.887894
4406.621783
4447.681727
4426.186287
4436.195002
4442.312557
4425.625308
4426.615473
4436.962597
4440.042624
4431.452975
4400.312132
4430.340597
4419.218880
4444.691169
4418.449753
4424.444413
4386.810834
4408.061752
4413.839076
4481.109994
4445.804007
4433.949263
4412.102651
4452.461471
4413.293826
4431.260168
4391.622707
4471.424513
4431.583135
4404.452158
4462.333380
4418.510816
4414.065538
4411.920864
4431.051890
4426.338731
4415.251371
4441.064335
4425.237189
4439.730826
4425.766620
4428.978040
4449.907216
4426.430501
4436.026237
4422.182958
4435.395698
4451.036367
4398.819983
4438.385785
4418.856252
4463.948730
4449.475235
4418.893989
4453.666161
4407.265099
4441.822344
4419.631681
4406.490526
4433.511979
4438.545634
4410.317966
4471.452286
4354.215214
4443.745770
4429.987112
4431.391974
4418.575924
4419.922627
4451.939785
4420.908295
4439.993335
4434.936482
4432.247221
4456.048017
4416.046395
4471.880283
4432.442237
4434.815156
4437.887321
4408.068584
4444.850550
4395.874842
4397.314707
4467.380747
4452.229703
4454.134063
4434.405753
4428.867889
4416.286260
4429.316044
4447.998545
4437.921853
4467.738604
4437.548598
4428.947030
4412.032886
4452.638723
4426.729384
4412.249368
4460.045718
4414.914164
4431.610087
4454.010419
4397.509996
4384.600772
4393.521795
4421.081119
4518.010830
4411.589772
4439.059400
4431.733552
4403.857899
4460.490964
4359.209330
4418.836243
4443.729578
4420.400672
4413.885406
4399.779852
4436.237576
4423.156008
4404.906920
4442.692669
4419.663048
4426.502632
4423.505486
4427.007586
4412.503845
4421.498854
4438.323687
4425.926751
4480.010827
4403.068303
4410.876898
4446.252545
4423.968063
4421.868340
4471.783488
4352.133498
4416.152174
4402.763908
4435.801508
4428.033506
4439.919773
4410.664900
4433.686464
4457.496578
4372.402970
4410.603629
4439.925976
4422.585205
4434.038592
4444.396979
4467.429007
4422.617004
4474.725961
4395.527617
4440.353014
4436.841507
4442.295389
4418.822924
4420.377885
4405.595361
4453.012451
4423.604806
4384.609081
4437.671055
4434.498417
4383.541260
4443.096391
4423.934595
4444.458656
4435.565497
4424.404050
4431.699310
4418.035818
4369.113244
4375.573383
4445.284935
4443.950922
4469.084177
4458.574939
4443.347800
4424.952919
4431.613382
4441.830445
4448.361724
4443.856604
4407.227014
4435.315179
4401.051095
4442.416854
4438.858696
4444.058791
4435.229714
4432.675689
4441.888172
4449.135020
4421.263040
4400.310140
4465.909954
4476.115926
4407.501067
4426.907591
4438.652512
4416.699209
4428.197425
4394.746501
4371.073366
4436.809464
4380.259737
4438.775053
4393.777054
4420.565041
4418.409487
4469.600668
4415.990176
4445.236407
4447.707438
4413.661923
4409.402360
4446.648114
4449.207062
4414.820223
4420.045427
4415.612202
4442.309132
4438.376908
4452.230298
4407.827589
4403.473338
4400.531846
4436.101226
4390.883216
4446.304123
4436.131112
4453.425614
4426.880595
4439.573579
4421.950355
4463.690551
4436.599153
4424.329226
4430.952727
4449.271434
4394.410953
4445.705531
4422.352845
4421.671086
4451.907383
4425.854489
4438.469516
4426.327388
4434.592470
4409.102257
4442.554140
4433.839725
4433.617714
4437.953856
4414.987819
4442.905243
4410.100476
4462.842044
4449.262978
4435.051063
4440.858475
4382.331519
4395.057390
4450.109012
4425.551254
4427.935573
4431.176298
4447.854077
4447.372228
4434.627599
4408.664473
4434.144166
4388.363833
4401.622238
4424.735518
4418.764170
4396.944489
4431.159336
4413.746439
4437.241765
4445.875569
4399.082482
4443.306156
4421.633013
4425.692220
4436.003615
4434.554863
4410.732169
4445.130573
4392.260388
4444.744357
4452.199548
4417.808620
4374.330301
4418.573917
4426.670682
4423.211569
4424.257383
4432.137870
4440.139012
4474.519853
4426.256137
4413.144756
4440.580448
4437.820657
4446.767634
4392.203394
4486.340301
4412.490778
4425.340223
4454.300801
4395.654495
4431.651570
4448.034191
4424.615594
4441.850022
4436.425987
4422.415043
4439.447555
4419.631027
4458.587294
4401.461515
4429.136096
4441.806257
4379.451869
4508.906966
4437.661811
4449.457123
4429.234565
4428.615060
4444.276470
4437.681727
4473.424104
4415.742192
4496.745953
4493.166914
4439.461876
4454.566619
4417.363440
4413.159017
4441.005120
4394.491701
4406.329051
4450.970714
4443.153478
4425.245572
4431.265671
4424.115679
4409.370518
4419.319181
4444.384347
4431.642217
4448.542379
4451.414263
4458.734799
4460.507909
4448.553355
4442.562367
4387.823094
4422.723876
4420.617952
4423.764721
4427.984883
4452.856289
4421.957118
4447.932693
4434.139683
4438.402983
4408.914574
4448.987718
4455.701330
4381.074477
4448.571248
4439.525860
4443.710403
4428.786030
4421.977917
4416.579287
4431.333484
4428.904636
4455.548890
4413.836290
4430.717391
4432.529466
4412.760324
4396.822652
4436.713525
4432.029077
4442.355408
4426.569204
4428.248740
4432.833410
4419.861601
4440.919841
4443.719150
4475.862214
4434.430234
4467.023371
4439.507707
4423.591893
4471.193023
4432.853912
4391.707494
4405.373985
4396.604902
4401.048032
4439.616206
4425.490866
4434.338988
4446.409152
4441.192139
4438.449074
4433.294986
4440.425329
4440.222389
4419.364091
4430.416778
4453.632643
4389.318993
4404.096665
4472.225644
4459.536351
4406.083701
4487.936687
4424.426687
4411.352043
4405.002261
4469.194277
4438.973388
4428.007309
4350.488068
4436.990509
4410.957704
4435.355336
4475.907040
4426.328829
4470.240689
4461.610475
4436.792166
4407.145213
4441.620775
4401.616862
4417.072331
4434.259172
4444.429696
4430.884426
4450.745737
4422.684592
4424.567436
4407.104777
4428.566568
4449.768076
4453.229037
4370.938388
4438.927272
4433.020458
4435.169304
4419.698794
4435.653091
4436.080409
4444.969717
4426.517176
4451.891705
4427.655267
4419.923143
4351.627729
4467.096900
4443.927859
4433.804519
4430.849222
4401.823167
4445.839192
4406.008582
4448.360810
4435.839427
4436.817956
4403.980172
4442.242352
4403.320070
4427.338259
4456.666705
4413.020906
4445.061038
4480.257123
4410.022104
4411.665910
4393.625551
4459.005058
4432.920812
4465.077996
4398.749510
4446.794466
4433.274630
4436.764794
4428.765719
4439.175908
4441.191681
4401.888016
4354.394231
4487.573229
4430.852041
4413.469969
4409.548170
4436.987544
4435.789410
4435.493739
4419.081557
4423.073257
4440.937790
4427.320979
4427.195425
4411.866270
4401.824264
4432.708499
4424.424631
4410.122152
4408.015411
4440.977499
4446.664895
4424.700279
4450.231054
4431.524591
4429.379319
4404.113952
4364.608325
4389.744248
4422.610580
4380.642119
4364.165285
4447.179852
4436.315031
4380.122523
4443.477205
4434.818327
4422.673943
4422.983077
4416.189904
4451.106186
4440.491296
4425.792009
4428.861846
4430.505239
4430.789627
4430.978657
4430.826171
4430.282050
4429.850376
4429.404018
4429.515102
4430.150670
4431.335006
4431.831732
4431.481483
4431.110700
4430.590281
4429.566928
4430.224793
4429.173804
4428.839142
4429.492979
4430.618130
4432.100372
4433.126649
4433.449418
4432.078057
4429.537095
4428.131794
4428.822704
4430.229272
4430.662172
4429.688797
4430.183916
4431.378538
4432.007947
4431.617127
4430.238555
4428.815707
4427.426574
4427.268564
4428.519201
4431.801082
4433.378918
4431.916757
4430.207298
4428.855486
4430.211458
4430.006035
4428.808346
4428.258954
4428.640654
4430.270404
4431.609763
4433.502174
4433.410876
4432.344119
4428.761762
4426.705858
4427.112889
4428.777942
4429.021596
4429.993248
4429.836835
4431.343169
4431.964579
4431.523840
4430.031659
4428.495085
4426.673976
4426.579668
4427.819510
4431.095999
4433.224544
4432.130818
4429.523807
4429.687089
4430.009613
4429.644211
4428.980431
4427.391991
4428.895608
4429.355245
4431.838956
4432.519031
4433.887305
4430.963413
4429.514495
4425.452074
4428.130085
4428.473737
4429.622221
4429.757653
4429.625153
4431.283150
4431.675098
4431.452304
4429.611656
4428.304444
4426.232736
4426.268858
4427.590837
4430.474403
4432.962162
4431.766458
4428.956769
4429.078443
4429.756889
4429.676694
4428.577200
4427.554580
4428.173686
4429.644073
4430.998609
4432.831465
4432.965850
4431.324222
4428.688879
4425.569653
4426.884170
4428.119112
4429.167457
4429.153262
4429.785871
4430.753125
4431.660920
4431.203751
4429.405397
4428.060597
4425.906456
4426.179646
4427.065631
4430.431113
4432.644612
4431.952289
4429.760116
4430.524394
4429.556557
4429.500890
4428.436995
4427.296575
4428.047566
4429.284860
4430.912063
4432.415845
4432.714075
4430.968775
4428.524563
4425.393979
4427.381539
4427.773406
4430.099797
4429.070871
4429.560491
4430.753003
4431.441605
4430.862423
4429.432866
4427.432608
4426.064730
4425.846933
4426.891293
4429.922430
4432.450149
4430.955818
4428.271483
4425.195853
4429.305278
4429.512191
4428.098785
4427.128935
4427.808959
4428.928421
4430.821480
4432.132501
4432.419410
4430.902662
4427.973349
4425.515368
4425.803085
4427.679320
4428.811307
4428.883542
4429.369433
4430.599172
4431.246644
4430.594477
4429.250984
4427.282823
4425.789787
4425.920366
4426.587666
4429.772901
4432.529299
4432.013679
4428.838506
4429.266978
4467.814862
4434.715014
4423.378110
4438.984169
4438.585901
4466.572074
4428.946906
4406.959198
4403.488958
4453.130937
4481.440664
4396.736813
4470.499065
4483.001465
4438.184049
4417.450938
4429.027704
4429.303250
4428.123492
4426.577162
4427.880868
4428.533416
4430.673065
4431.933495
4432.041202
4430.449751
4428.751068
4424.736512
4428.205816
4429.658423
4432.816606
4408.470958
4440.642456
4430.148128
4426.763770
4429.128207
4440.400602
4436.116864
4443.922019
4401.305390
4399.478787
4420.844316
4423.743838
4438.030678
4351.678625
4471.445788
4409.057340
4428.472225
4429.212983
4430.368589
4430.967860
4430.585668
4428.704229
4427.618787
4425.030832
4426.490577
4426.128806
4429.293998
4432.977211
4430.842383
4429.030475
4429.295617
4450.579281
4447.876938
4399.764574
4431.796961
4401.399259
4445.918430
4410.046145
4434.491751
4420.682211
4442.919963
4456.621813
4419.989633
4434.174388
4461.262609
4423.327727
4413.667795
4428.821655
4429.281923
4427.857762
4426.550330
4427.456957
4428.873482
4429.924428
4432.321617
4430.744253
4430.870810
4428.247605
4424.058497
4427.453287
4426.700361
4428.842976
4407.693613
4432.903086
4426.276156
4413.189310
4409.378984
4444.154127
4436.439736
4410.159170
4418.998902
4427.798655
4425.763749
4433.067733
4394.325511
4409.971875
4440.539507
4451.482659
4428.383321
4429.332188
4429.957344
4431.063082
4430.284929
4428.858028
4427.237623
4425.161498
4426.156182
4425.773263
4428.781655
4432.894550
4429.335022
4427.255243
4428.034451
4432.890728
4443.795202
4440.066030
4459.135829
4427.583197
4438.381269
4437.174866
4475.899887
4423.101195
4442.331387
4387.947781
4416.596980
4471.819933
4421.224476
4435.916498
4418.669322
4428.414550
4429.239074
4427.650299
4426.639961
4427.161340
4428.995914
4429.839807
4432.012689
4430.550928
4430.488107
4427.980605
4423.928259
4427.003345
4427.032711
4424.997394
4425.241201
4443.861949
4444.725348
4398.622842
4476.868803
4398.032921
4420.427993
4450.641572
4473.091160
4405.133068
4423.523957
4447.859950
4444.584828
4412.562757
4453.440146
4421.373674
4428.429382
4429.468504
4429.656191
4431.124301
4430.005883
4429.083185
4426.682947
4425.829791
4425.731698
4426.063569
4428.230059
4433.110383
4428.481159
4428.674589
4427.885631
4426.681186
4406.644747
4450.397529
4422.474025
4340.532455
4435.548189
4423.311270
4422.448370
4425.363482
4438.531808
4424.911345
4454.930410
4434.609331
4419.924388
4466.786758
4419.804880
4428.220645
4429.211913
4427.417307
4426.675248
4426.836269
4428.888114
4429.696145
4431.933769
4430.354546
4430.623534
4427.918826
4424.448956
4427.405101
4427.425590
4426.370419
4425.017705
4401.580678
4378.505819
4383.384580
4392.022782
4482.857689
4435.224854
4422.960633
4417.267073
4443.197116
4438.645603
4404.085141
4429.338265
4377.785259
4462.491987
4412.900248
4428.267398
4429.150198
4429.777283
4430.603113
4430.295322
4428.422724
4427.089528
4425.568224
4426.647628
4425.527286
4428.817628
4432.965119
4429.850658
4428.957597
4429.295367
4432.565466
4441.164651
4395.255920
4416.943485
4442.884841
4434.778934
4435.167260
4427.035478
4480.394900
4464.596588
4378.690327
4385.828244
4440.636074
4395.558185
4441.499924
4408.448116
4428.224630
4428.784662
4427.734805
4426.200157
4427.167260
4428.318797
4429.901895
4431.501636
4430.565714
4430.276780
4428.251206
4424.605648
4428.137420
4427.147569
4428.795143
4445.029739
4436.265982
4428.311224
4445.660957
4379.048796
4417.120345
4429.100890
4440.069290
4384.358935
4425.479566
4443.170334
4495.760883
4400.770323
4396.000738
4427.652060
4443.127752
4428.146582
4429.054337
4429.591946
4430.503013
4430.232001
4428.263754
4427.013852
4425.928885
4426.830487
4425.391711
4428.420250
4432.895994
4429.891296
4429.097623
4428.013248
4422.514523
4446.858159
4404.023531
4449.332493
4451.678242
4433.262836
4451.414250
4474.605942
4422.886327
4431.283001
4414.425296
4429.440572
4471.487427
4406.774068
4467.109008
4407.501191
4428.089547
4428.985888
4427.345390
4426.723888
4426.506089
4428.877064
4429.199170
4431.635455
4430.194882
4430.221607
4427.521553
4424.644636
4426.101382
4426.471141
4424.971225
4433.291049
4478.886405
4446.971606
4378.702313
4439.565686
4429.320027
4444.677744
4410.845841
4473.688151
4444.304698
4405.696434
4420.467702
4453.108459
4421.445033
4395.684282
4419.241420
4427.999442
4429.342583
4429.048757
4430.823825
4430.105428
4428.295097
4426.893600
4426.534112
4426.419207
4425.560412
4427.570709
4432.365315
4428.314116
4427.511469
4425.292769
4426.015296
4424.606776
4435.428518
4444.759420
4413.305395
4444.104471
4447.971496
4430.652037
4443.471069
4440.576503
4430.934323
4408.372017
4406.620685
4376.078365
4476.348864
4446.956096
4427.908327
4429.117038
4427.228646
4426.928313
4426.290285
4429.185822
4428.918538
4431.626346
4429.850807
4430.052842
4427.153957
4424.792829
4425.653019
4425.674645
4426.622615
4405.871155
4444.917478
4402.147101
4437.887399
4448.593326
4429.022166
4429.019328
4426.287365
4416.781689
4449.773124
4427.848631
4416.242874
4396.075212
4424.058486
4383.762286
4447.645735
4427.869987
4429.415976
4428.867051
4431.059399
4429.781722
4428.356589
4426.699212
4427.076877
4426.339823
4425.900509
4427.306250
4431.972249
4428.588705
4427.181295
4425.393928
4431.268647
4422.429853
4412.640026
4451.678866
4389.539503
4410.674324
4423.367746
4446.342239
4428.805887
4420.504795
4441.966393
4405.426546
4439.697230
4473.277752
4419.771485
4401.040105
4428.108081
4428.998763
4427.479414
4426.634239
4426.723258
4428.528028
4429.143159
4431.818102
4429.701028
4430.099029
4427.452354
4425.327697
4425.605702
4425.878169
4424.799146
4422.286272
4414.548926
4436.324726
4404.219553
4413.977882
4440.632641
4420.887280
4428.880480
4419.876808
4451.154494
4500.919006
4395.043463
4454.944031
4434.077756
4451.504777
4427.389042
4428.051788
4429.141600
4429.222228
4430.763179
4429.728916
4428.268207
4427.038140
4426.863281
4427.471801
4425.765439
4427.120753
4432.370757
4429.324557
4427.609902
4426.345891
4435.814524
4422.381529
4442.517124
4443.321754
4389.917435
4431.390957
4450.188026
4430.230512
4452.960059
4418.335284
4485.157413
4441.124148
4427.722613
4439.298335
4411.419968
4422.623426
4428.430046
4429.080535
4427.515200
4426.788566
4426.642141
4428.420035
4429.164627
4431.774446
4429.990499
4429.691075
4428.230905
4425.070946
4426.648680
4425.540858
4426.455618
4442.688059
4452.893382
4433.862012
4450.433887
4381.914411
4418.386058
4441.393480
4381.288057
4454.341744
4442.301181
4443.593665
4462.910593
4459.062449
4418.284455
4430.765131
4405.797659
4428.197705
4428.872897
4429.413639
4430.292771
4430.457657
4427.484175
4427.806554
4426.767677
4428.075968
4425.330904
4427.385256
4432.880660
4428.364473
4427.097509
4426.744386
4445.884584
4449.360392
4401.467065
4464.953509
4383.066981
4436.023575
4438.579143
4422.426449
4464.824413
4446.242769
4463.904043
4393.357609
4418.708933
4460.932177
4366.195210
4428.531933
4428.296054
4429.438462
4427.398702
4427.246735
4426.143559
4429.541450
4428.643835
4431.725735
4430.675498
4430.003568
4427.544208
4425.911483
4425.508392
4425.054109
4424.774880
4429.665805
4432.366743
4415.432183
4379.413787
4429.004037
4443.753506
4445.746092
4418.102221
4388.368606
4447.750410
4400.082230
4420.652091
4439.539737
4394.010086
4393.378777
4446.248976
4428.187966
4429.446557
4428.399934
4431.498477
4429.998314
4428.512753
4427.514269
4428.753196
4426.887415
4425.732600
4428.274749
4431.546995
4428.107682
4427.810864
4426.251919
4419.190341
4399.090471
4416.756498
4428.392538
4457.622760
4419.394300
4433.218011
4494.890427
4404.934765
4406.591044
4430.549104
4412.416535
4479.856438
4433.687098
4562.897633
4414.656262
4428.312602
4429.276371
4428.049735
4426.937583
4426.925356
4429.094241
4428.589794
4432.045587
4430.550343
4429.605472
4427.403572
4427.247142
4426.263315
4426.225678
4423.123459
4445.399115
4425.893786
4445.969144
4430.479718
4462.593318
4461.959548
4441.856059
4450.325426
4477.663396
4430.541377
4448.870478
4441.959787
4442.542031
4422.166847
4281.919658
4426.978401
4428.607012
4429.601350
4428.516314
4431.408425
4429.658131
4428.374185
4427.001662
4429.048576
4426.396430
4426.918010
4428.250336
4430.862635
4427.331566
4427.778691
4424.936538
4421.645283
4379.170154
4380.455290
4407.004825
4444.660856
4412.836384
4437.063713
4442.607776
4435.041557
4437.222161
4396.209688
4439.401058
4445.570401
4419.501506
4385.852925
4405.770274