# vtk DataFile Version 2.0
mfree iwf
ASCII

DATASET UNSTRUCTURED_GRID
POINTS 8808 float
0.000000 0.000445 0.000000
0.000001 0.000450 0.000000
0.000000 0.000455 0.000000
0.000001 0.000460 0.000000
0.000001 0.000465 0.000000
0.000001 0.000470 0.000000
0.000001 0.000475 0.000000
0.000001 0.000480 0.000000
0.000001 0.000485 0.000000
0.000001 0.000490 0.000000
0.000000 0.000496 0.000000
0.000002 0.000500 0.000000
0.000178 0.000577 0.000000
0.000178 0.000586 0.000000
0.000179 0.000627 0.000000
0.000179 0.000635 0.000000
0.000179 0.000634 0.000000
0.000180 0.000639 0.000000
0.000181 0.000648 0.000000
0.000180 0.000646 0.000000
0.000181 0.000658 0.000000
0.000185 0.000685 0.000000
0.000187 0.000691 0.000000
0.000189 0.000695 0.000000
0.000191 0.000699 0.000000
0.000193 0.000704 0.000000
0.000195 0.000708 0.000000
0.000198 0.000713 0.000000
0.000200 0.000716 0.000000
0.000203 0.000722 0.000000
0.000206 0.000728 0.000000
0.000220 0.000753 0.000000
0.000005 0.000445 0.000000
0.000006 0.000450 0.000000
0.000005 0.000455 0.000000
0.000006 0.000460 0.000000
0.000006 0.000465 0.000000
0.000006 0.000470 0.000000
0.000006 0.000475 0.000000
0.000006 0.000480 0.000000
0.000005 0.000485 0.000000
0.000007 0.000490 0.000000
0.000004 0.000496 0.000000
0.000006 0.000499 0.000000
0.000179 0.000623 0.000000
0.000186 0.000635 0.000000
0.000184 0.000665 0.000000
0.000184 0.000671 0.000000
0.000185 0.000675 0.000000
0.000186 0.000679 0.000000
0.000188 0.000683 0.000000
0.000190 0.000687 0.000000
0.000193 0.000693 0.000000
0.000195 0.000698 0.000000
0.000199 0.000704 0.000000
0.000201 0.000710 0.000000
0.000206 0.000715 0.000000
0.000208 0.000722 0.000000
0.000210 0.000726 0.000000
0.000212 0.000730 0.000000
0.000214 0.000740 0.000000
0.000216 0.000743 0.000000
0.000214 0.000740 0.000000
0.000218 0.000750 0.000000
0.000010 0.000445 0.000000
0.000011 0.000450 0.000000
0.000010 0.000455 0.000000
0.000011 0.000460 0.000000
0.000010 0.000465 0.000000
0.000011 0.000470 0.000000
0.000010 0.000475 0.000000
0.000011 0.000480 0.000000
0.000010 0.000486 0.000000
0.000012 0.000490 0.000000
0.000009 0.000497 0.000000
0.000012 0.000498 0.000000
0.000183 0.000624 0.000000
0.000187 0.000635 0.000000
0.000186 0.000651 0.000000
0.000185 0.000657 0.000000
0.000185 0.000662 0.000000
0.000185 0.000667 0.000000
0.000191 0.000665 0.000000
0.000192 0.000676 0.000000
0.000193 0.000681 0.000000
0.000194 0.000688 0.000000
0.000198 0.000690 0.000000
0.000199 0.000699 0.000000
0.000204 0.000699 0.000000
0.000208 0.000706 0.000000
0.000205 0.000711 0.000000
0.000209 0.000718 0.000000
0.000215 0.000733 0.000000
0.000216 0.000736 0.000000
0.000219 0.000744 0.000000
0.000224 0.000748 0.000000
0.000015 0.000445 0.000000
0.000016 0.000450 0.000000
0.000014 0.000455 0.000000
0.000017 0.000459 0.000000
0.000015 0.000466 0.000000
0.000017 0.000470 0.000000
0.000014 0.000475 0.000000
0.000017 0.000480 0.000000
0.000015 0.000485 0.000000
0.000017 0.000489 0.000000
0.000015 0.000495 0.000000
0.000017 0.000498 0.000000
0.000026 0.000500 0.000000
0.000187 0.000640 0.000000
0.000187 0.000654 0.000000
0.000191 0.000655 0.000000
0.000192 0.000670 0.000000
0.000187 0.000674 0.000000
0.000198 0.000677 0.000000
0.000196 0.000683 0.000000
0.000202 0.000688 0.000000
0.000201 0.000694 0.000000
0.000209 0.000701 0.000000
0.000203 0.000704 0.000000
0.000211 0.000711 0.000000
0.000213 0.000716 0.000000
0.000215 0.000721 0.000000
0.000215 0.000725 0.000000
0.000218 0.000729 0.000000
0.000222 0.000736 0.000000
0.000222 0.000741 0.000000
0.000227 0.000747 0.000000
0.000020 0.000445 0.000000
0.000021 0.000450 0.000000
0.000020 0.000456 0.000000
0.000022 0.000460 0.000000
0.000019 0.000465 0.000000
0.000022 0.000468 0.000000
0.000020 0.000475 0.000000
0.000022 0.000479 0.000000
0.000020 0.000486 0.000000
0.000022 0.000491 0.000000
0.000021 0.000497 0.000000
0.000022 0.000499 0.000000
0.000039 0.000500 0.000000
0.000194 0.000641 0.000000
0.000192 0.000647 0.000000
0.000195 0.000652 0.000000
0.000190 0.000662 0.000000
0.000197 0.000665 0.000000
0.000197 0.000672 0.000000
0.000200 0.000683 0.000000
0.000203 0.000680 0.000000
0.000206 0.000690 0.000000
0.000212 0.000693 0.000000
0.000215 0.000701 0.000000
0.000212 0.000707 0.000000
0.000217 0.000712 0.000000
0.000219 0.000717 0.000000
0.000224 0.000726 0.000000
0.000222 0.000731 0.000000
0.000227 0.000736 0.000000
0.000227 0.000741 0.000000
0.000231 0.000745 0.000000
0.000025 0.000445 0.000000
0.000026 0.000450 0.000000
0.000025 0.000455 0.000000
0.000026 0.000459 0.000000
0.000025 0.000466 0.000000
0.000026 0.000471 0.000000
0.000024 0.000476 0.000000
0.000027 0.000480 0.000000
0.000024 0.000485 0.000000
0.000027 0.000489 0.000000
0.000027 0.000492 0.000000
0.000028 0.000500 0.000000
0.000178 0.000600 0.000000
0.000189 0.000643 0.000000
0.000187 0.000647 0.000000
0.000195 0.000658 0.000000
0.000199 0.000661 0.000000
0.000198 0.000670 0.000000
0.000209 0.000672 0.000000
0.000203 0.000674 0.000000
0.000207 0.000684 0.000000
0.000209 0.000688 0.000000
0.000207 0.000696 0.000000
0.000212 0.000698 0.000000
0.000215 0.000706 0.000000
0.000221 0.000714 0.000000
0.000221 0.000721 0.000000
0.000226 0.000719 0.000000
0.000226 0.000732 0.000000
0.000229 0.000727 0.000000
0.000232 0.000738 0.000000
0.000235 0.000743 0.000000
0.000030 0.000445 0.000000
0.000031 0.000450 0.000000
0.000030 0.000457 0.000000
0.000033 0.000462 0.000000
0.000029 0.000464 0.000000
0.000031 0.000469 0.000000
0.000031 0.000473 0.000000
0.000031 0.000478 0.000000
0.000031 0.000486 0.000000
0.000032 0.000492 0.000000
0.000034 0.000497 0.000000
0.000031 0.000499 0.000000
0.000049 0.000500 0.000000
0.000193 0.000631 0.000000
0.000199 0.000649 0.000000
0.000198 0.000654 0.000000
0.000201 0.000659 0.000000
0.000203 0.000666 0.000000
0.000206 0.000677 0.000000
0.000210 0.000680 0.000000
0.000214 0.000681 0.000000
0.000216 0.000690 0.000000
0.000218 0.000694 0.000000
0.000219 0.000705 0.000000
0.000225 0.000706 0.000000
0.000222 0.000710 0.000000
0.000226 0.000713 0.000000
0.000226 0.000723 0.000000
0.000234 0.000728 0.000000
0.000233 0.000733 0.000000
0.000236 0.000736 0.000000
0.000239 0.000740 0.000000
0.000035 0.000445 0.000000
0.000035 0.000450 0.000000
0.000038 0.000455 0.000000
0.000034 0.000456 0.000000
0.000035 0.000465 0.000000
0.000037 0.000471 0.000000
0.000033 0.000479 0.000000
0.000039 0.000480 0.000000
0.000035 0.000484 0.000000
0.000035 0.000488 0.000000
0.000038 0.000492 0.000000
0.000037 0.000498 0.000000
0.000178 0.000571 0.000000
0.000178 0.000598 0.000000
0.000199 0.000641 0.000000
0.000203 0.000653 0.000000
0.000206 0.000663 0.000000
0.000210 0.000661 0.000000
0.000206 0.000668 0.000000
0.000212 0.000675 0.000000
0.000213 0.000686 0.000000
0.000219 0.000685 0.000000
0.000220 0.000697 0.000000
0.000224 0.000696 0.000000
0.000224 0.000701 0.000000
0.000232 0.000713 0.000000
0.000231 0.000717 0.000000
0.000235 0.000720 0.000000
0.000234 0.000724 0.000000
0.000238 0.000728 0.000000
0.000240 0.000734 0.000000
0.000243 0.000738 0.000000
0.000040 0.000445 0.000000
0.000041 0.000450 0.000000
0.000039 0.000460 0.000000
0.000042 0.000457 0.000000
0.000041 0.000465 0.000000
0.000040 0.000470 0.000000
0.000044 0.000476 0.000000
0.000038 0.000475 0.000000
0.000041 0.000487 0.000000
0.000043 0.000491 0.000000
0.000042 0.000497 0.000000
0.000045 0.000498 0.000000
0.000178 0.000522 0.000000
0.000188 0.000630 0.000000
0.000197 0.000637 0.000000
0.000210 0.000647 0.000000
0.000206 0.000658 0.000000
0.000211 0.000667 0.000000
0.000216 0.000669 0.000000
0.000215 0.000675 0.000000
0.000219 0.000680 0.000000
0.000221 0.000689 0.000000
0.000224 0.000688 0.000000
0.000228 0.000698 0.000000
0.000229 0.000705 0.000000
0.000234 0.000706 0.000000
0.000230 0.000710 0.000000
0.000236 0.000716 0.000000
0.000239 0.000722 0.000000
0.000243 0.000727 0.000000
0.000245 0.000732 0.000000
0.000247 0.000736 0.000000
0.000045 0.000445 0.000000
0.000046 0.000450 0.000000
0.000046 0.000455 0.000000
0.000045 0.000461 0.000000
0.000046 0.000465 0.000000
0.000046 0.000469 0.000000
0.000046 0.000478 0.000000
0.000042 0.000482 0.000000
0.000051 0.000484 0.000000
0.000046 0.000484 0.000000
0.000048 0.000493 0.000000
0.000051 0.000498 0.000000
0.000178 0.000529 0.000000
0.000179 0.000620 0.000000
0.000196 0.000646 0.000000
0.000208 0.000653 0.000000
0.000211 0.000656 0.000000
0.000215 0.000664 0.000000
0.000220 0.000673 0.000000
0.000223 0.000676 0.000000
0.000225 0.000683 0.000000
0.000229 0.000688 0.000000
0.000228 0.000693 0.000000
0.000232 0.000700 0.000000
0.000233 0.000695 0.000000
0.000238 0.000708 0.000000
0.000240 0.000712 0.000000
0.000241 0.000717 0.000000
0.000245 0.000721 0.000000
0.000246 0.000725 0.000000
0.000249 0.000730 0.000000
0.000252 0.000734 0.000000
0.000050 0.000445 0.000000
0.000051 0.000450 0.000000
0.000050 0.000456 0.000000
0.000051 0.000459 0.000000
0.000050 0.000465 0.000000
0.000052 0.000471 0.000000
0.000049 0.000473 0.000000
0.000051 0.000478 0.000000
0.000048 0.000488 0.000000
0.000053 0.000491 0.000000
0.000058 0.000493 0.000000
0.000054 0.000498 0.000000
0.000178 0.000557 0.000000
0.000185 0.000617 0.000000
0.000190 0.000626 0.000000
0.000206 0.000647 0.000000
0.000215 0.000655 0.000000
0.000217 0.000660 0.000000
0.000223 0.000665 0.000000
0.000220 0.000667 0.000000
0.000230 0.000677 0.000000
0.000225 0.000679 0.000000
0.000233 0.000687 0.000000
0.000234 0.000692 0.000000
0.000237 0.000700 0.000000
0.000239 0.000704 0.000000
0.000243 0.000708 0.000000
0.000245 0.000711 0.000000
0.000247 0.000717 0.000000
0.000251 0.000723 0.000000
0.000253 0.000727 0.000000
0.000256 0.000731 0.000000
0.000055 0.000445 0.000000
0.000057 0.000450 0.000000
0.000055 0.000455 0.000000
0.000056 0.000461 0.000000
0.000054 0.000465 0.000000
0.000057 0.000469 0.000000
0.000057 0.000477 0.000000
0.000058 0.000482 0.000000
0.000053 0.000483 0.000000
0.000057 0.000487 0.000000
0.000056 0.000497 0.000000
0.000060 0.000497 0.000000
0.000178 0.000565 0.000000
0.000178 0.000617 0.000000
0.000186 0.000624 0.000000
[...]
POINT_DATA 8808
SCALARS density float 1
LOOKUP_TABLE default
4429.860622
4431.727298
4426.289534
4422.529991
4422.357329
4427.967868
4439.067249
4433.467641
4442.863014
4425.376859
4433.599146
4398.156989
4598.827626
4464.689860
4442.343287
4416.825330
4420.594666
4436.614791
4424.696675
4433.305105
4430.592984
4427.774208
4417.957932
4440.863645
4430.375643
4419.393088
4438.159413
4430.957755
4427.526631
4431.036568
4445.968014
4443.961042
4421.033036
4425.679262
4422.239327
4435.926875
4440.694047
4417.825353
4422.256665
4423.711671
4406.469869
4419.841166
4446.879848
4401.454805
4422.470286
4437.759353
4392.569745
4418.854958
4420.542010
4397.648483
4412.708317
4426.942403
4424.744908
4410.388231
4419.110515
4408.991584
4442.471490
4399.631241
4414.231375
4406.234706
4428.511400
4398.480886
4428.341178
4445.184826
4421.704010
4426.804835
4448.899424
4403.830052
4437.299757
4416.729371
4453.726375
4386.623979
4480.451191
4362.324696
4474.007933
4405.869343
4416.159560
4444.735781
4431.412931
4397.525962
4398.227377
4394.307684
4468.099928
4394.744709
4466.677584
4395.791469
4416.671176
4421.212235
4400.266880
4413.201782
4429.427851
4408.027896
4432.598077
4447.799040
4425.777464
4405.714050
4432.232287
4440.798624
4431.667935
4444.069721
4442.653204
4411.870732
4459.199328
4378.361738
4479.259018
4375.554980
4525.541231
4397.961033
4438.481164
4395.775566
4455.215718
4425.287411
4381.138038
4462.609573
4389.378018
4450.942942
4435.197255
4438.219792
4418.164613
4450.449249
4404.110235
4458.758989
4447.195797
4460.948258
4447.214199
4377.012257
4492.579570
4441.020302
4432.715376
4427.878039
4443.922461
4416.903209
4442.316604
4433.206877
4437.490208
4439.020983
4462.225397
4369.600945
4470.792409
4438.849645
4424.367678
4398.001448
4450.759536
4392.888743
4518.184633
4369.554413
4451.626664
4433.881276
4445.426496
4424.622010
4431.278007
4414.918509
4447.073257
4411.629884
4426.037478
4428.981157
4414.505088
4456.960940
4351.857907
4448.320268
4431.289264
4430.673935
4429.825993
4427.062463
4450.126460
4413.054272
4452.694059
4382.607023
4424.861374
4470.600360
4412.135007
4429.808060
4468.107364
4472.906463
4365.948163
4344.135156
4466.052631
4467.958150
4440.695238
4425.524869
4425.036004
4445.754473
4427.732616
4459.388523
4452.490763
4466.727022
4361.468882
4461.331095
4464.826164
4396.726647
4431.105130
4428.521835
4438.666575
4426.227983
4421.010420
4427.267665
4425.231539
4430.353986
4420.594425
4450.826221
4430.523548
4392.915522
4463.945069
4422.409420
4424.338178
4432.492826
4438.788146
4478.586291
4450.978946
4417.942401
4439.594809
4422.393338
4430.918509
4411.543550
4425.778875
4417.460176
4423.549730
4419.433595
4398.631372
4460.677223
4469.273876
4406.374463
4407.758920
4435.642313
4439.361916
4434.277094
4407.203491
4429.468046
4436.440935
4434.898975
4441.687188
4415.901036
4419.694793
4442.609178
4427.787854
4444.737130
4468.728258
4448.856166
4452.780946
4387.608289
4461.038174
4423.780639
4396.348330
4438.328503
4442.795458
4423.382263
4411.653392
4446.563253
4433.281678
4421.688184
4416.583700
4431.305002
4419.257120
4444.090761
4413.325638
4429.293910
4424.778539
4442.083824
4434.655152
4416.317840
4428.595197
4426.494962
4440.329153
4398.900374
4444.288836
4417.634204
4429.334575
4425.208014
4632.848879
4382.246459
4418.989417
4438.446966
4388.659347
4453.275597
4429.036414
4432.647639
4447.282751
4449.353047
4453.797043
4444.716308
4413.898018
4417.192452
4455.352098
4439.695926
4403.824349
4423.708127
4419.205501
4433.889959
4433.700500
4418.212097
4421.401083
4421.774421
4434.539462
4417.789263
4426.031145
4449.642891
4475.829916
4394.593556
4476.757990
4444.385653
4491.017501
4415.572391
4415.607323
4468.148752
4456.631528
4425.505269
4416.782178
4460.495242
4421.914028
4417.288276
4392.055735
4422.054235
4444.062883
4397.931341
4443.980489
4421.862760
4439.070936
4449.168230
4424.887332
4418.299613
4431.080061
4421.425312
4437.236054
4427.664769
4405.926489
4421.237160
4463.103703
4367.027408
4396.655138
4395.089012
4565.442286
4405.282055
4633.096426
4443.235969
4451.029007
4450.230308
4455.452472
4421.919541
4448.267608
4455.287018
4446.148887
4438.404775
4462.608653
4435.760956
4446.819077
4468.012318
4443.955155
4443.719506
4414.467900
4427.167696
4421.186763
4425.764921
4431.580372
4417.580382
4422.063195
4419.206020
4443.267920
4409.150941
4449.058862
4411.500780
4482.053424
4371.257615
4406.623863
4383.594796
4614.700608
4419.984950
4438.233072
4424.799646
4429.565533
4431.308402
4455.221417
4439.387849
4442.178225
4460.107958
4451.648544
4393.476984
4452.595509
4409.738900
4422.998099
4440.670375
4447.394983
4418.561720
4429.863246
4420.262715
4430.584118
4400.460332
4435.721652
4399.390263
4435.312673
4397.009631
4468.791757
4394.101032
4464.046001
4406.735445
4453.048555
4441.757148
4407.328044
4399.098739
4446.352035
4395.891135
4370.984639
4442.776352
4424.118592
4437.336182
4423.515221
4458.214347
4395.034986
4449.401974
4427.048324
4445.262581
4446.298277
4442.400670
4415.311487
4420.283533
4426.945013
4419.671202
4437.400189
4424.156829
4435.178011
4418.873398
4439.499028
4427.930408
4462.743465
4439.472692
4455.804719
4363.382192
4440.341044
4435.580853
4574.658972
4439.745223
4417.644687
4424.623769
4467.416225
4433.890647
4428.685738
4445.387827
4399.698608
4457.322562
4440.721840
4430.845845
4418.101909
4405.847991
4423.092904
4438.512405
4447.004624
4425.299478
4425.625789
4422.038852
4428.128983
4425.872861
4419.223134
4433.024357
4424.495761
4398.956631
4442.689904
4382.815732
4435.074268
4456.301294
4441.053313
4444.970081
4484.879235
4426.971446
4448.964326
4445.468106
4452.856051
4401.608658
4451.117688
4459.447266
4465.253265
4403.015383
4426.478332
4433.837922
4401.210252
4458.660255
4418.874531
4429.083662
4433.832695
4408.784884
4424.360348
4421.310821
4441.729733
4425.436145
4423.082200
4414.303213
4422.983848
4444.056978
4425.526082
4455.849298
4445.045494
4384.158495
4433.077919
4446.750630
4424.418225
4415.818806
4434.101631
4425.125947
4408.578255
4466.677501
4459.552872
4436.369406
4427.545353
4461.860011
4431.264824
4453.561444
4441.161488
4460.715778
4433.523811
4442.937929
4416.160184
4444.978693
4414.011927
4419.630020
4420.193298
4420.234689
4434.894051
4430.966186
4441.753229
4399.271184
4417.151706
4404.011678
4393.750031
4509.899933
4360.678457
4425.937907
4425.062730
4380.827821
4476.212606
4412.824570
4441.465063
4430.949164
4418.727466
4399.789419
4443.431375
4445.185356
4464.270707
4415.256959
4449.120933
4455.851146
4421.793952
4450.864694
4410.049616
4438.414930
4412.335728
4423.327958
4447.272295
4421.729003
4425.310707
4440.088489
4416.871347
4439.957970
4439.404095
4435.449830
4451.546579
4422.674365
4448.358068
4480.712132
4574.170782
4582.282394
4472.867946
4405.121472
4425.978923
4412.178907
4447.771784
4452.944922
4423.988798
4439.532741
4436.727296
4449.267449
4403.625727
4459.127151
4438.716271
4407.712119
4431.299122
4434.142742
4419.614544
4425.231340
4418.365516
4421.667642
4437.238705
4415.533290
4415.716607
4412.853821
4442.961576
4467.776308
4448.439320
4434.469255
4396.437875
4415.004480
4406.371701
4418.670564
4394.967201
4406.299952
4434.265574
4412.357143
4467.659637
4442.811889
4430.289739
4422.011450
4452.703314
4444.349139
4460.731945
4427.957871
4464.634913
4433.656350
4439.312174
4418.325749
4416.830074
4421.607516
4445.913805
4434.889107
4435.884501
4433.236934
4431.829222
4413.115920
4389.964120
4438.130387
4415.772850
4429.175193
4439.818397
4435.499720
4394.468209
4387.843458
4484.505280
4502.724981
4476.288283
4426.433301
4421.430103
4377.006437
4487.114327
4433.383503
4424.316027
4402.689381
4460.226168
4446.634112
4436.067467
4412.729785
4423.736865
4429.544627
4420.208441
4421.669024
4412.346376
4425.729097
4425.852530
4414.899172
4441.992658
4417.272823
4433.917575
4364.009813
4453.008510
4482.675837
4385.842597
4575.738275
4392.722357
4478.615756
4439.650012
4473.488654
4506.691659
4458.804609
4403.770026
4436.087317
4442.430556
4470.263626
4429.971402
4443.458669
4406.648497
4446.186583
4431.596327
4465.251964
4444.822105
4429.078674
4428.567658
4411.854424
4451.620634
4435.464494
4411.731550
4425.754777
4415.977030
4415.203469
4457.468578
4424.102210
4456.505974
4387.236127
4419.039592
4427.632782
4451.827792
4468.587821
4481.758760
4496.219157
4407.924032
4474.003444
4433.231531
4444.423293
4387.431210
4371.127746
4449.064802
4449.328011
4455.463748
4394.530196
4457.276268
4418.748923
4426.375111
4404.158450
4432.430354
4422.716126
4421.671425
4437.237723
4429.865640
4431.603590
4418.331376
4393.333340
4456.812003
4397.646674
4434.400641
4355.287988
4357.234749
4506.404434
4415.864687
4458.829566
4460.062681
4416.313780
4432.763286
4454.528415
4429.697353
4438.766334
4430.392424
4407.098804
4430.060550
4442.559943
4459.486645
4425.696939
4453.266559
4442.103910
4467.224032
4429.482817
4413.463264
4425.254359
4442.616861
4442.778033
4414.330721
4422.644420
4436.708548
4448.122535
4430.812162
4412.500356
4466.054304
4467.143871
4466.781051
4424.463277
4467.337531
4473.957772
4473.234961
4468.116495
4437.529827
4493.863873
4406.306709
4405.822469
4457.418389
4425.853825
4400.934545
4380.608486
4457.455557
4466.530402
4417.412477
4435.005584
4416.541053
4419.342300
4431.628731
4421.820847
4413.609354
4427.561840
4426.948429
4427.519913
4428.172900
4428.244788
4428.713986
4428.810938
4429.259474
4429.322502
4429.735373
4429.709354
4429.903194
4429.750655
4429.801187
4417.648791
4425.967974
4425.860453
4426.810489
4427.412425
4427.710695
4428.379524
4428.398136
4428.957012
4428.930816
4429.501508
4429.480042
4429.647486
4429.698160
4431.516708
4420.893210
4426.006861
4425.563462
4426.467170
4427.406965
4427.364122
4428.146189
4428.071716
4428.884860
4428.702291
4429.365148
4429.061541
4429.485902
4429.883317
4429.754480
4422.544284
4426.490342
4426.120397
4426.845159
4427.340381
4427.636673
4428.203826
4428.303078
4428.673891
4428.760450
4429.071314
4429.152531
4429.568137
4429.377933
4430.600838
4424.475014
4426.844357
4426.615231
4426.950072
4427.438737
4427.630272
4428.018357
4428.189987
4428.632264
4428.711914
4429.091040
4428.747270
4429.558678
4428.594989
4429.994122
4425.199049
4427.302331
4427.065343
4427.179416
4427.840788
4427.673297
4428.457953
4428.171482
4428.879743
4428.438784
4429.181883
4428.802863
4429.294833
4427.936608
4429.975232
4425.965504
4427.573837
4427.368694
4427.432620
4427.843959
4427.775931
4428.295617
4428.184648
4428.731115
4428.694622
4429.096858
4428.675631
4429.014897
4427.869706
4428.763502
4426.572193
4427.880440
4427.735324
4427.667087
4428.132507
4428.081191
4428.464758
4428.501923
4428.815036
4428.711363
4429.063976
4428.975206
4429.181973
4428.128739
4427.652871
4426.902899
4428.123518
4427.850340
4427.881310
4428.194225
4427.996772
4428.558136
4428.294032
4428.886355
4428.798041
4429.314474
4429.089078
4429.486212
4429.318426
4429.591476
4427.475667
4428.398540
4428.042967
4428.201255
4428.268807
4428.496286
4428.493522
4428.801980
4428.813460
4429.002054
4429.171781
4429.524421
4430.271508
4429.445918
4430.946264
4427.531689
4428.586122
4428.091376
4428.376845
4428.218186
4428.467158
4428.442947
4428.658554
4428.716475
4429.068988
4429.330634
4429.440571
4430.275610
4430.512667
4431.134342
4427.945749
4428.710437
4428.298067
4428.453945
4428.570746
4428.516627
4428.762797
4428.651637
4429.048554
4428.814592
4429.279817
4429.515848
4430.080165
4430.868552
4430.211209
4428.259490
4428.589538
4428.682145
4428.352712
4428.573052
4428.490696
4428.586930
4428.667717
4428.671472
4428.994922
4429.082583
4429.222027
4429.808902
4430.116448
4431.729718
4433.434270
4436.703319
4420.723620
4434.956805
4435.130982
4451.018742
4439.384382
4505.603658
4407.177675
4444.374486
4452.579011
4482.917449
4427.373229
4433.069525
4424.680998
4409.474151
4428.424398
4428.778821
4428.659394
4428.508642
4428.826387
4428.497168
4428.853741
4428.603119
4428.923029
4428.607428
4428.877084
4428.979471
4429.351321
4429.126429
4430.768479
4433.698754
4446.272062
4431.407144
4434.597785
4454.016091
4435.018618
4474.078157
4398.311397
4442.047163
4417.017624
4405.709977
4437.085913
4411.599263
4450.887834
4407.058531
4408.682341
4428.310203
4428.764341
4428.801871
4428.454634
4428.791089
4428.341691
4428.906483
4428.151513
4428.940303
4428.134223
4429.211347
4427.943977
4429.048931
4428.481242
4428.193970
4433.169711
4431.257336
4406.868675
4405.111077
4389.695547
4450.136979
4482.296628
4438.337495
4449.412926
4450.190075
4411.681907
4378.313083
4437.466286
4473.747157
4383.638256
4434.593597
4428.516901
4428.841863
4428.910415
4428.459840
4429.023591
4428.484048
4428.820886
4428.502038
4428.791859
4428.229356
4428.607007
4428.074085
4428.496590
4426.603753
4429.342923
4444.038468
4436.323682
4416.261647
4371.103794
4464.956343
4453.899296
4459.041614
4459.389205
4462.772915
4419.922177
4453.915664
4457.109810
4383.410109
4408.652857
4420.557224
4405.409276
4428.432749
4429.005889
4428.753986
4428.770430
4428.712053
4428.509095
4428.728885
4428.328125
4428.364098
4428.416466
4428.028369
4427.517843
4427.661963
4425.985174
4425.418644
4431.055296
4425.484033
4432.577874
4420.175095
4469.668547
4547.275819
4553.551828
4535.318108
4459.990703
4455.841852
4441.682254
4464.205624
4446.216342
4364.575008
4429.094580
4409.673726
4428.493019
4429.180521
4428.723733
4428.922244
4428.652513
4428.948884
4428.425756
4428.720834
4428.518761
4427.990757
4428.139571
4427.202874
4427.310515
4425.301639
4421.591744
4419.667290
4426.595463
4441.312093
4423.534697
4453.119429
4513.294719
4486.812054
4471.424757
4402.133394
4414.692723
4453.694645
4451.469532
4386.714242
4433.183622
4418.390064
4421.645778
4428.648186
4429.180627
4428.805967
4429.000632
4428.648148
4428.760245
4428.516091
4428.691022
4428.004232
4428.786458
4427.244158
4428.120714
4425.546256
4426.482626
4423.296383
4448.022157
4409.909509
4416.275044
4411.788855
4460.002096
4452.468298
4441.978202
4490.463251
4464.585597
4455.841687
4481.315980
4488.240893
4461.966413
4467.216697
4477.805563
4404.030662
4428.642124
4429.324038
4428.775857
4429.083434
4428.694158
4429.014213
4428.584273
4428.738832
4428.524931
4428.240185
4428.245176
4427.714157
4427.945405
4427.313566
4425.153247
4427.518167
4430.843323
4423.025667
4440.224530
4481.150268
4474.129460
4467.423367
4489.264968
4470.924145
4402.364000
4426.330691
4463.825493
4448.301144
4453.371369
4406.117208
4412.091694
4428.612554
4429.163614
4429.029905
4428.866312
4429.016458
4428.702281
4428.912567
4428.567732
4428.804312
4428.343023
4428.665997
4428.418012
4428.489427
4428.489746
4429.196863
4429.379856
4422.576666
4450.939868
4442.464664
4429.253906
4471.286314
4449.655483
4462.165964
4460.002477
4486.514153
4451.455768
4390.570414
4424.881255
4449.170107
4394.738657
4412.160870
4428.706008
4429.173284
4429.175020
4428.929994
4429.159966
4428.848912
4429.089513
4428.746482
4428.761721
4428.752632
4428.635974
4428.541448
4429.397911
4429.591548
4429.211087
4447.630675
4422.535981
4450.727684
4441.112374
4433.197283
4431.671327
4423.035578
4439.273384
4447.118155
4444.923854
4400.105798
4421.066331
4457.866082
4455.785754
4386.304525
4440.595269
4428.726871
4429.347597
4429.051792
4429.201862
4428.952671
4429.152268
4428.812466
4428.965782
4428.897655
4428.609332
4428.943122
4429.195382
4428.741171
4430.139251
4429.337299
4426.687184
4431.840475
4434.129268
4453.382953
4438.576397
4456.288387
4448.410325
4465.640771
4460.581733
4445.091842
4407.537867
4448.246691
4444.065090
4440.988036
4402.574639
4423.275074
4428.729348
4429.420743
4429.080378
4429.227833
4429.165694
4429.067379
4429.155484
4428.995650
4428.748583
4429.199521
4428.694388
4428.978563
4428.960006
4429.468637
4428.337396
4425.971038
4424.108168
4402.456857
4435.171139
4414.582945
4429.428997
4431.615941
4458.516863
4458.163783
4445.906283
4486.836486
4440.270965
4414.106199
4406.453839
4326.364429
4439.485981
4428.849460
4429.404536
4429.290063
4429.268834
4429.142756
4429.261675
4428.972279
4429.060690
4429.154229
4428.737250
4429.201308
4429.077273
4428.796396
4428.959899
4428.841967
4424.111324
4435.152857
4424.968168
4430.231747
4442.045020
4426.429309
4413.379435
4418.080326
4431.612574
4412.319515
4448.970045
4415.421573
4441.959071
4432.573094
4481.933945
4437.273782
4428.838524
4429.595077
4429.158302
4429.509650
4429.189225
4429.321699
4429.298724
4429.195466
4429.080353
4429.161497
4428.973047
4428.638295
4429.298432
4428.554130
4428.738705
4435.564369
4429.926639
4418.802855
4422.413998
4434.375089
4450.788216
4453.217245
4437.489276
4426.217595
4441.618821
4440.680415
4433.020525
4446.030765
4464.902542
4397.050488
4401.805516
4428.974430
4429.610094
4429.343687
4429.406485
4429.366566
4429.486075
4429.135932
4429.465350
4428.981840
4429.252759
4428.684137
4429.263973
4428.296426
4429.179448
4429.442877
4431.665976
4434.141371
4423.281990
4422.835975
4431.232033
4442.403979
4446.931078
4422.325431
4422.350756
4450.627751
4446.448285
4432.876993
4449.855848
4407.188758
4426.630995
4417.837085
4428.992598
4429.643823
4429.437012
4429.757980
4429.300457
4429.685340
4429.350517
4429.429670
4429.258441
4429.096886
4429.064912
4428.797599
4428.606175
4429.349381
4427.980828
4450.284507
4407.225684
4433.802265
4430.279552
4447.992921
4438.332421
4413.139714
4426.075507
4431.551198
4449.821715
4408.197977
4423.567951
4426.142294
4402.965325
4424.005371
4420.786739
4429.241813
4429.724667
4429.623325
4429.477229
4429.818683
4429.421632
4429.685598
4429.428238
4429.319957
4429.511705
4428.906963
4429.355421
4428.963312
4428.673792
4431.964250
4431.590052
4434.653064
4414.382317
4447.506112
4435.825416
4456.142456
4431.887261
4423.535409
4440.906688
4445.994853
4439.052823
4436.603358
4443.341323
4429.012168
4417.734799
4452.029726
4429.336500
4429.601635
4429.974567
4429.591962
4429.937566
4429.633400
4429.824457
4429.525186
4429.732817
4429.056959
4429.437358
4428.818268
4428.679570
4428.295519
4429.809519
4432.659581
4423.217701
4434.442867
4414.679824
4406.134957
4439.346005
4452.063003
4408.453788
4407.759028
4429.774378
4450.924313
4471.564916
4450.961979
4451.918832
4420.031105
4433.724325
4429.602581
4429.953908
4429.815388
4429.998446
4429.777829
4429.894131
4429.855386
4429.589600
4429.741339
4429.335829
4429.745904
4428.619330
4429.746428
4428.112690
4427.216082
4405.737577
4434.673904
4390.454980
4447.055926
4429.696301
4436.260651
4420.250763
4416.857528
4425.185898
4457.420613
4441.596027
4416.635475
4417.964998
4452.068503
4467.989280
4441.576390
4429.682941
4430.119332
4429.927655
4430.036284
4430.099988
4429.984396
4429.977805
4430.028797
4429.778222
4429.932135
4429.124284
4429.953917
4428.313463
4428.020855
4430.369491
4431.580212
4438.274415
4439.803917
4435.943357
4444.935760
4424.291676
4434.230623
4435.052281
4450.882777
4409.360139
4437.071907
4458.500339
4445.087236
4443.046977
4431.333912
4454.479065
4430.018502
4430.048152
4430.314246
4430.087726
4430.195933
4430.191146
4430.178913
4430.181655
4430.048673
4429.970238
4430.142782
4429.171008
4429.804446
4429.785558
4428.497196
4430.070867
4433.999785
4428.855361
4443.051131
4428.681854
4398.326447
4441.052292
4415.427263
4419.571934
4441.609125
4460.970728
4460.341735
4476.684586
4455.815136
4464.467982
4455.984198
4430.375495
4430.338264
4430.289489
4430.475499
4430.339639
4430.439544
4430.420822
4430.292057
4430.445444
4430.132496
4429.893537
4430.248348
4429.487367
4429.201769
4430.172910
4443.978078
4412.200812
4435.206220
4437.039669
4458.309559
4433.238174
4459.020881
4392.285156
4390.774483
4444.510800
4454.570004
4440.312594
4446.570990
4466.971719
4454.781928
4451.458010
4430.595183
4430.566418
4430.401887
4430.643868
4430.410484
4430.715672
4430.396541
4430.848074
4430.204605
4430.972571
4430.275544
4430.578837
4429.938525
4430.212548
4431.323970
4427.880946
4406.054493
4427.782832
4442.168800
4449.345220
4452.341627
4426.029788
4453.204553
4452.903895
4421.155809
4427.055519
4423.207658
4434.647469
4433.128277
4442.966872
4444.424070