# vtk DataFile Version 2.0
mfree iwf
ASCII

DATASET UNSTRUCTURED_GRID
POINTS 11007 float
0.000000 0.000445 0.000000
0.000000 0.000450 0.000000
0.000000 0.000455 0.000000
-0.000000 0.000460 0.000000
-0.000000 0.000465 0.000000
-0.000000 0.000470 0.000000
-0.000000 0.000475 0.000000
-0.000000 0.000480 0.000000
0.000000 0.000485 0.000000
0.000000 0.000490 0.000000
-0.000000 0.000496 0.000000
0.000002 0.000500 0.000000
0.000888 0.000931 0.000000
0.000897 0.000931 0.000000
0.000944 0.000924 0.000000
0.000949 0.000922 0.000000
0.000949 0.000922 0.000000
0.000956 0.000921 0.000000
0.000963 0.000919 0.000000
0.000958 0.000920 0.000000
0.000973 0.000916 0.000000
0.000998 0.000909 0.000000
0.001004 0.000905 0.000000
0.001008 0.000902 0.000000
0.001012 0.000900 0.000000
0.001016 0.000896 0.000000
0.001020 0.000894 0.000000
0.001024 0.000890 0.000000
0.001026 0.000888 0.000000
0.001032 0.000884 0.000000
0.001037 0.000880 0.000000
0.001058 0.000870 0.000000
0.000005 0.000445 0.000000
0.000005 0.000450 0.000000
0.000005 0.000455 0.000000
0.000005 0.000460 0.000000
0.000005 0.000465 0.000000
0.000005 0.000470 0.000000
0.000005 0.000475 0.000000
0.000005 0.000480 0.000000
0.000005 0.000485 0.000000
0.000006 0.000490 0.000000
0.000003 0.000496 0.000000
0.000006 0.000499 0.000000
0.000939 0.000924 0.000000
0.000945 0.000916 0.000000
0.000979 0.000913 0.000000
0.000985 0.000911 0.000000
0.000990 0.000909 0.000000
0.000994 0.000908 0.000000
0.000996 0.000906 0.000000
0.000999 0.000903 0.000000
0.001002 0.000900 0.000000
0.001008 0.000896 0.000000
0.001013 0.000892 0.000000
0.001019 0.000888 0.000000
0.001022 0.000884 0.000000
0.001031 0.000879 0.000000
0.001034 0.000876 0.000000
0.001039 0.000873 0.000000
0.001049 0.000871 0.000000
0.001052 0.000870 0.000000
0.001046 0.000873 0.000000
0.001056 0.000868 0.000000
0.000010 0.000445 0.000000
0.000011 0.000450 0.000000
0.000010 0.000455 0.000000
0.000010 0.000459 0.000000
0.000010 0.000465 0.000000
0.000010 0.000469 0.000000
0.000010 0.000475 0.000000
0.000011 0.000479 0.000000
0.000009 0.000486 0.000000
0.000012 0.000489 0.000000
0.000008 0.000497 0.000000
0.000011 0.000498 0.000000
0.000939 0.000920 0.000000
0.000948 0.000914 0.000000
0.000964 0.000914 0.000000
0.000972 0.000913 0.000000
0.000976 0.000912 0.000000
0.000981 0.000911 0.000000
0.000973 0.000906 0.000000
0.000982 0.000904 0.000000
0.000987 0.000903 0.000000
0.000993 0.000901 0.000000
0.001003 0.000896 0.000000
0.001007 0.000893 0.000000
0.001007 0.000888 0.000000
0.001012 0.000885 0.000000
0.001018 0.000884 0.000000
0.001028 0.000879 0.000000
0.001041 0.000872 0.000000
0.001044 0.000871 0.000000
0.001050 0.000865 0.000000
0.001052 0.000860 0.000000
0.000014 0.000445 0.000000
0.000016 0.000450 0.000000
0.000014 0.000456 0.000000
0.000017 0.000460 0.000000
0.000014 0.000469 0.000000
0.000015 0.000464 0.000000
0.000014 0.000476 0.000000
0.000016 0.000480 0.000000
0.000014 0.000484 0.000000
0.000016 0.000489 0.000000
0.000014 0.000495 0.000000
0.000016 0.000497 0.000000
0.000025 0.000500 0.000000
0.000951 0.000915 0.000000
0.000966 0.000912 0.000000
0.000963 0.000908 0.000000
0.000977 0.000905 0.000000
0.000986 0.000909 0.000000
0.000990 0.000899 0.000000
0.000996 0.000896 0.000000
0.000991 0.000893 0.000000
0.000999 0.000893 0.000000
0.001010 0.000880 0.000000
0.001013 0.000889 0.000000
0.001019 0.000878 0.000000
0.001024 0.000879 0.000000
0.001024 0.000874 0.000000
0.001029 0.000873 0.000000
0.001034 0.000869 0.000000
0.001039 0.000867 0.000000
0.001042 0.000864 0.000000
0.001050 0.000857 0.000000
0.000019 0.000445 0.000000
0.000021 0.000450 0.000000
0.000018 0.000455 0.000000
0.000022 0.000459 0.000000
0.000019 0.000469 0.000000
0.000025 0.000467 0.000000
0.000018 0.000475 0.000000
0.000022 0.000478 0.000000
0.000019 0.000486 0.000000
0.000021 0.000491 0.000000
0.000020 0.000497 0.000000
0.000022 0.000499 0.000000
0.000039 0.000500 0.000000
0.000949 0.000903 0.000000
0.000956 0.000910 0.000000
0.000964 0.000903 0.000000
0.000969 0.000909 0.000000
0.000979 0.000899 0.000000
0.000981 0.000896 0.000000
0.000995 0.000891 0.000000
0.000985 0.000893 0.000000
0.000997 0.000885 0.000000
0.001000 0.000877 0.000000
0.001005 0.000875 0.000000
0.001010 0.000875 0.000000
0.001020 0.000872 0.000000
0.001026 0.000864 0.000000
0.001032 0.000865 0.000000
0.001035 0.000862 0.000000
0.001044 0.000858 0.000000
0.001046 0.000861 0.000000
0.001048 0.000853 0.000000
0.000024 0.000445 0.000000
0.000026 0.000450 0.000000
0.000024 0.000455 0.000000
0.000026 0.000461 0.000000
0.000021 0.000465 0.000000
0.000024 0.000472 0.000000
0.000023 0.000476 0.000000
0.000026 0.000481 0.000000
0.000023 0.000485 0.000000
0.000026 0.000488 0.000000
0.000026 0.000493 0.000000
0.000027 0.000500 0.000000
0.000918 0.000929 0.000000
0.000955 0.000913 0.000000
0.000959 0.000913 0.000000
0.000975 0.000901 0.000000
0.000969 0.000898 0.000000
0.000986 0.000898 0.000000
0.000987 0.000889 0.000000
0.000977 0.000894 0.000000
0.000986 0.000884 0.000000
0.001002 0.000889 0.000000
0.001005 0.000884 0.000000
0.001002 0.000884 0.000000
0.001015 0.000880 0.000000
0.001016 0.000874 0.000000
0.001028 0.000869 0.000000
0.001024 0.000869 0.000000
0.001039 0.000860 0.000000
0.001031 0.000859 0.000000
0.001041 0.000855 0.000000
0.001044 0.000849 0.000000
0.000030 0.000445 0.000000
0.000031 0.000450 0.000000
0.000029 0.000455 0.000000
0.000031 0.000460 0.000000
0.000031 0.000464 0.000000
0.000028 0.000469 0.000000
0.000032 0.000472 0.000000
0.000030 0.000477 0.000000
0.000030 0.000486 0.000000
0.000031 0.000492 0.000000
0.000033 0.000497 0.000000
0.000030 0.000499 0.000000
0.000048 0.000500 0.000000
0.000944 0.000909 0.000000
0.000959 0.000901 0.000000
0.000968 0.000902 0.000000
0.000964 0.000898 0.000000
0.000973 0.000897 0.000000
0.000980 0.000886 0.000000
0.000994 0.000881 0.000000
0.000992 0.000887 0.000000
0.000997 0.000880 0.000000
0.001006 0.000878 0.000000
0.001011 0.000866 0.000000
0.001013 0.000870 0.000000
0.001017 0.000867 0.000000
0.001022 0.000860 0.000000
0.001021 0.000865 0.000000
0.001029 0.000855 0.000000
0.001035 0.000855 0.000000
0.001039 0.000852 0.000000
0.001042 0.000846 0.000000
0.000035 0.000445 0.000000
0.000035 0.000450 0.000000
0.000034 0.000456 0.000000
0.000038 0.000454 0.000000
0.000034 0.000467 0.000000
0.000037 0.000472 0.000000
0.000032 0.000479 0.000000
0.000041 0.000479 0.000000
0.000035 0.000483 0.000000
0.000034 0.000488 0.000000
0.000037 0.000491 0.000000
0.000036 0.000498 0.000000
0.000876 0.000929 0.000000
0.000914 0.000930 0.000000
0.000954 0.000904 0.000000
0.000960 0.000895 0.000000
0.000974 0.000890 0.000000
0.000966 0.000886 0.000000
0.000981 0.000890 0.000000
0.000982 0.000883 0.000000
0.000989 0.000882 0.000000
0.000988 0.000874 0.000000
0.000994 0.000869 0.000000
0.001003 0.000866 0.000000
0.001007 0.000868 0.000000
0.001012 0.000860 0.000000
0.001026 0.000858 0.000000
0.001020 0.000847 0.000000
0.001031 0.000850 0.000000
0.001033 0.000850 0.000000
0.001037 0.000847 0.000000
0.001039 0.000841 0.000000
0.000040 0.000445 0.000000
0.000041 0.000450 0.000000
0.000036 0.000462 0.000000
0.000040 0.000458 0.000000
0.000041 0.000463 0.000000
0.000040 0.000468 0.000000
0.000041 0.000473 0.000000
0.000037 0.000477 0.000000
0.000041 0.000488 0.000000
0.000042 0.000491 0.000000
0.000041 0.000497 0.000000
0.000044 0.000498 0.000000
0.000737 0.000855 0.000000
0.000940 0.000916 0.000000
0.000945 0.000906 0.000000
0.000956 0.000890 0.000000
0.000970 0.000892 0.000000
0.000976 0.000884 0.000000
0.000971 0.000887 0.000000
0.000986 0.000878 0.000000
0.000993 0.000874 0.000000
0.000998 0.000872 0.000000
0.000990 0.000871 0.000000
0.001000 0.000864 0.000000
0.001008 0.000862 0.000000
0.001014 0.000855 0.000000
0.001016 0.000862 0.000000
0.001018 0.000856 0.000000
0.001023 0.000853 0.000000
0.001027 0.000846 0.000000
0.001034 0.000843 0.000000
0.001036 0.000838 0.000000
0.000044 0.000445 0.000000
0.000047 0.000450 0.000000
0.000044 0.000455 0.000000
0.000046 0.000461 0.000000
0.000044 0.000467 0.000000
0.000046 0.000474 0.000000
0.000046 0.000479 0.000000
0.000040 0.000483 0.000000
0.000052 0.000486 0.000000
0.000045 0.000483 0.000000
0.000048 0.000493 0.000000
0.000050 0.000498 0.000000
0.000742 0.000861 0.000000
0.000935 0.000924 0.000000
0.000958 0.000905 0.000000
0.000965 0.000892 0.000000
0.000962 0.000889 0.000000
0.000975 0.000881 0.000000
0.000978 0.000876 0.000000
0.000982 0.000876 0.000000
0.000986 0.000868 0.000000
0.000995 0.000864 0.000000
0.001002 0.000870 0.000000
0.001008 0.000857 0.000000
0.001000 0.000858 0.000000
0.001009 0.000853 0.000000
0.001017 0.000852 0.000000
0.001024 0.000849 0.000000
0.001022 0.000843 0.000000
0.001028 0.000842 0.000000
0.001031 0.000839 0.000000
0.001033 0.000834 0.000000
0.000049 0.000445 0.000000
0.000052 0.000450 0.000000
0.000048 0.000455 0.000000
0.000054 0.000458 0.000000
0.000048 0.000465 0.000000
0.000050 0.000471 0.000000
0.000052 0.000467 0.000000
0.000051 0.000477 0.000000
0.000047 0.000488 0.000000
0.000052 0.000491 0.000000
0.000057 0.000492 0.000000
0.000053 0.000498 0.000000
0.000820 0.000913 0.000000
0.000927 0.000920 0.000000
0.000939 0.000912 0.000000
0.000955 0.000894 0.000000
0.000963 0.000884 0.000000
0.000970 0.000881 0.000000
0.000966 0.000877 0.000000
0.000973 0.000876 0.000000
0.000982 0.000865 0.000000
0.000982 0.000871 0.000000
0.000986 0.000863 0.000000
0.000996 0.000860 0.000000
0.001002 0.000853 0.000000
0.001004 0.000859 0.000000
0.001010 0.000849 0.000000
0.001013 0.000843 0.000000
0.001015 0.000847 0.000000
0.001024 0.000838 0.000000
0.001028 0.000835 0.000000
0.001030 0.000830 0.000000
0.000054 0.000445 0.000000
0.000057 0.000450 0.000000
0.000052 0.000456 0.000000
0.000052 0.000463 0.000000
0.000059 0.000467 0.000000
0.000053 0.000473 0.000000
0.000058 0.000476 0.000000
0.000056 0.000480 0.000000
0.000052 0.000483 0.000000
0.000057 0.000486 0.000000
0.000056 0.000497 0.000000
0.000059 0.000496 0.000000
0.000842 0.000920 0.000000
0.000933 0.000926 0.000000
[...]
POINT_DATA 11007
SCALARS density float 1
LOOKUP_TABLE default
4427.988128
4434.630451
4426.918169
4426.702441
4432.510826
4424.543880
4432.136570
4430.105396
4428.817631
4417.051677
4430.363653
4405.078817
4425.386306
4421.566531
4417.537254
4437.544294
4439.074309
4433.844654
4450.087283
4447.550091
4424.856709
4437.446568
4401.349365
4434.994978
4431.810119
4412.498281
4443.288761
4433.878991
4415.058928
4446.830321
4421.193727
4404.761280
4429.647920
4426.185046
4423.161620
4429.496035
4436.388280
4424.602679
4430.390438
4424.627489
4423.687306
4436.785220
4449.505286
4408.942454
4415.565858
4415.728588
4414.495142
4410.559337
4421.108226
4412.961191
4436.684529
4443.723444
4440.341181
4418.661105
4419.412430
4391.360268
4433.133533
4403.046809
4434.312347
4462.868667
4422.617609
4430.953143
4407.372303
4402.019416
4422.424904
4428.674123
4447.058084
4422.672932
4423.368036
4420.676451
4449.644779
4395.202492
4461.031510
4387.153319
4448.071856
4398.202089
4458.954552
4453.680584
4441.470854
4404.809725
4425.269552
4404.547850
4451.452508
4420.420343
4421.396948
4408.554991
4426.915869
4438.885981
4399.007791
4420.538450
4447.521654
4407.584662
4422.341187
4427.951166
4454.688016
4419.641465
4422.488850
4435.267054
4433.265252
4417.809367
4419.721920
4443.466670
4453.038223
4389.674935
4472.701062
4382.614084
4506.373801
4405.516893
4435.496476
4397.702705
4425.763916
4438.253965
4481.090433
4458.206451
4446.191659
4410.783480
4418.767870
4416.459667
4424.726469
4460.966122
4409.838368
4456.499930
4432.285733
4457.331191
4437.880026
4356.362657
4503.348317
4447.804425
4437.409895
4432.561717
4434.094560
4443.890614
4418.397022
4458.579525
4430.346150
4447.043165
4468.766405
4372.008463
4469.102133
4434.907972
4418.596139
4448.340404
4466.806605
4411.517650
4463.399029
4427.197226
4455.871791
4439.248423
4455.127133
4401.091688
4406.108963
4414.909572
4411.560698
4409.626857
4407.826964
4457.224750
4453.841818
4370.945930
4388.997540
4421.068301
4434.752139
4438.811134
4430.083596
4404.996723
4433.338004
4419.137752
4464.573641
4359.040820
4432.851404
4472.174462
4412.590289
4425.171237
4432.272483
4427.177276
4377.859884
4388.006676
4466.090610
4400.990643
4400.449197
4394.277354
4484.361713
4450.664883
4455.637358
4429.224860
4444.127959
4453.744056
4393.255090
4435.575661
4427.158934
4427.271417
4501.246163
4410.825520
4423.836719
4429.012595
4422.798477
4443.754584
4440.860843
4432.930216
4385.566825
4453.450117
4443.292737
4409.817840
4457.864030
4419.737562
4422.847230
4441.810752
4461.590303
4400.902801
4403.970121
4470.864385
4417.568176
4436.420344
4445.434348
4457.390354
4452.576760
4449.385216
4442.568488
4403.797024
4405.199283
4458.654993
4427.248794
4375.561353
4413.188446
4441.605452
4431.659865
4413.424890
4436.524006
4435.001402
4436.386914
4437.737224
4457.285661
4429.644666
4405.885900
4433.311822
4410.846954
4445.827462
4418.555829
4426.379617
4389.403786
4424.250109
4452.330021
4453.593929
4421.634521
4409.218857
4418.185517
4433.926500
4401.263011
4428.504986
4407.491044
4446.831189
4447.979744
4470.245608
4457.362272
4456.000856
4405.277677
4415.309899
4431.654246
4435.441454
4403.514747
4453.212489
4432.975596
4434.833661
4435.215055
4416.711578
4453.389902
4429.993662
4431.754623
4424.045932
4425.708743
4460.313942
4411.302631
4432.306755
4413.444188
4445.780718
4431.793172
4431.721546
4432.404633
4432.419600
4454.875828
4408.314980
4438.297461
4421.313424
4401.592664
4454.547901
4409.199572
4390.007421
4430.196091
4431.642197
4434.689806
4416.547598
4416.554993
4421.227337
4401.500817
4425.763015
4446.483641
4424.629309
4450.656348
4417.219705
4464.619727
4433.977048
4434.325044
4436.965897
4409.682200
4430.861258
4421.370399
4433.522871
4427.364238
4449.275609
4420.366253
4447.172039
4442.902736
4419.518234
4437.640382
4445.606850
4417.237039
4430.770955
4441.159310
4422.428746
4443.138317
4425.218741
4429.940084
4430.574096
4426.544529
4443.631677
4444.355002
4457.395338
4421.300602
4375.797043
4384.098727
4422.570388
4520.531478
4407.021748
4435.047213
4423.944480
4392.603516
4442.731178
4439.561156
4389.653253
4452.042559
4448.189715
4424.680620
4427.184087
4439.019022
4445.503375
4397.441858
4457.805824
4439.843076
4453.761141
4400.921030
4431.447685
4416.786825
4429.497350
4436.179461
4431.597862
4443.222302
4409.299832
4448.486305
4458.300452
4426.657343
4460.637274
4475.737338
4358.247245
4409.147888
4395.654525
4432.220743
4432.087432
4426.210941
4402.991313
4455.306184
4443.636069
4405.265877
4423.808853
4432.748980
4428.768563
4413.424115
4430.297755
4427.403712
4447.750939
4456.498555
4396.433826
4427.730670
4448.637538
4423.273962
4424.775371
4418.696434
4425.988264
4415.786529
4391.545877
4435.725982
4430.783483
4405.576037
4436.895754
4437.748342
4432.696477
4436.613656
4428.768503
4410.593646
4430.176165
4415.702736
4386.495600
4380.166944
4434.962366
4422.789015
4445.646477
4438.380158
4437.080673
4452.236563
4418.972914
4431.583060
4443.613803
4391.578030
4433.876645
4445.624298
4426.861731
4434.324645
4432.387908
4444.071472
4410.290569
4440.524511
4415.663703
4445.815428
4471.606812
4421.804568
4377.539745
4452.204297
4377.601488
4475.569436
4423.680593
4415.236198
4434.312137
4414.098919
4391.344298
4443.618760
4390.864806
4442.821195
4413.145896
4420.930416
4448.676026
4464.133446
4416.411153
4421.621146
4456.814911
4416.977572
4414.005281
4439.407865
4448.069637
4410.646421
4433.941222
4428.190514
4427.706336
4403.247073
4453.894978
4442.953956
4424.519744
4431.746955
4451.432974
4423.809646
4404.468457
4436.505181
4440.101189
4429.301266
4434.028002
4438.685169
4460.725154
4450.987673
4453.965436
4442.097219
4444.280518
4392.728270
4417.907866
4410.878469
4422.672017
4443.679361
4439.997410
4425.659597
4427.189311
4428.437426
4403.525417
4437.040087
4433.007045
4434.966571
4419.999676
4476.147775
4388.016962
4409.618608
4412.889321
4446.244857
4445.424494
4450.410749
4368.336867
4425.027130
4443.591473
4431.552126
4417.050974
4431.145945
4443.330753
4439.361767
4430.225531
4402.535878
4437.632876
4407.424799
4434.274689
4417.415417
4425.170801
4416.631400
4408.995276
4424.792211
4407.654964
4440.511751
4419.023243
4435.682846
4419.949324
4412.905590
4432.928474
4460.585327
4437.839762
4409.375673
4439.599943
4384.608919
4446.750629
4426.615954
4464.343920
4421.200630
4427.949717
4431.698204
4423.686348
4433.914473
4435.010088
4480.176179
4432.767753
4419.872860
4448.079117
4413.644246
4449.502567
4444.758463
4420.600766
4432.854174
4419.581682
4423.583677
4434.191009
4426.358087
4447.141395
4424.198025
4441.488808
4438.944172
4431.519709
4428.489714
4435.184394
4426.370611
4446.948173
4443.922096
4445.695609
4455.888637
4379.039516
4440.088744
4445.513661
4433.775163
4431.036484
4442.161600
4437.879004
4464.149943
4403.755967
4476.930960
4467.012632
4425.764692
4425.102783
4422.075457
4432.315713
4425.234169
4429.586578
4426.114430
4429.148909
4444.447157
4422.607968
4429.582696
4423.731237
4425.072088
4431.075636
4410.259766
4434.800269
4422.774859
4438.221183
4422.381914
4432.138872
4458.586487
4415.997147
4402.569350
4436.520556
4416.461431
4422.583584
4427.286124
4438.139947
4422.102734
4429.426860
4426.722029
4427.632235
4442.610339
4457.997289
4439.774298
4417.678655
4432.488822
4447.176757
4418.163601
4446.320201
4411.273082
4418.841134
4430.108911
4431.942814
4443.420360
4420.206135
4417.050485
4450.640406
4417.646920
4425.641953
4420.280120
4413.303244
4448.372675
4421.842097
4431.910740
4431.682143
4424.218889
4439.401683
4441.379779
4463.411621
4441.180825
4445.285231
4412.110476
4428.772120
4482.114442
4410.857511
4429.996483
4453.741524
4382.429682
4432.465600
4437.911280
4431.433943
4436.149086
4453.041646
4423.704465
4437.714234
4422.764909
4450.329550
4451.809715
4401.319408
4422.669956
4419.703963
4446.265694
4407.936508
4469.232525
4474.328179
4396.620564
4508.545680
4429.825460
4420.160625
4429.391072
4474.846914
4438.831090
4429.982525
4356.328391
4438.601558
4394.391096
4447.415116
4468.087778
4461.479873
4447.059289
4422.816293
4412.605319
4459.742951
4434.482787
4410.122526
4415.622976
4423.729113
4419.181539
4412.017564
4412.048539
4428.633687
4414.382524
4441.250175
4429.532932
4425.077839
4439.693216
4372.126749
4437.972092
4432.195937
4422.068546
4424.988252
4428.957319
4446.836440
4452.788878
4406.064541
4441.461993
4432.020620
4407.992495
4358.172344
4465.429079
4391.517179
4433.851309
4423.283494
4452.612020
4394.947570
4450.758673
4428.291338
4446.480147
4434.940310
4440.990490
4414.485707
4456.563040
4430.715723
4422.806071
4437.243685
4427.096861
4405.288537
4435.283150
4379.024019
4374.317320
4471.163491
4425.681740
4436.754678
4387.920387
4443.969538
4441.918568
4437.329537
4434.351567
4462.719612
4452.787222
4393.865303
4358.442823
4461.249717
4388.017103
4380.884282
4447.542532
4423.683734
4445.411962
4396.506610
4419.670887
4418.584902
4435.129193
4411.442820
4468.449923
4428.074701
4443.249792
4409.943369
4409.441900
4440.273735
4463.687957
4462.286094
4443.574981
4429.546383
4433.113681
4442.443614
4415.319115
4392.311597
4362.442737
4430.423507
4411.969490
4437.194222
4388.032761
4432.319562
4436.097654
4453.058727
4451.476595
4469.898144
4415.583242
4435.075257
4449.680755
4415.370660
4459.520321
4418.639392
4426.240328
4430.070003
4429.952407
4430.068176
4429.946176
4429.606860
4429.460056
4429.261978
4429.663864
4430.240870
4431.133186
4431.418431
4431.311332
4430.765742
4430.257873
4427.557409
4429.556029
4429.148876
4429.682682
4430.470823
4431.576579
4432.690579
4433.472115
4433.476392
4432.071947
4430.692949
4429.705869
4429.894930
4430.921387
4431.261681
4428.515418
4429.585770
4430.024326
4430.112914
4429.684750
4428.633251
4427.830459
4426.830918
4427.309732
4428.749687
4430.864717
4431.709557
4431.118134
4430.498184
4428.708841
4428.909044
4429.352103
4428.999510
4429.180892
4430.094884
4431.315720
4432.557509
4433.833158
4433.483933
4432.023339
4429.648463
4428.552271
4428.311414
4428.997962
4430.107209
4429.286791
4429.611260
4430.008755
4430.200374
4429.345881
4428.509142
4427.223259
4426.079491
4426.463489
4427.804200
4430.295388
4430.816195
4431.281380
4428.673075
4429.166018
4429.209113
4429.423645
4428.888654
4428.935907
4429.991646
4430.853431
4432.456408
4433.295186
4433.406359
4431.225283
4429.375529
4427.518233
4427.885751
4428.081271
4428.468408
4429.372857
4429.420722
4430.262096
4429.887957
4429.321022
4428.237070
4426.937412
4425.766828
4425.881916
4427.547470
4429.461056
4430.733039
4429.501194
4427.944572
4427.599477
4429.107542
4429.266755
4428.889503
4428.710002
4429.849853
4430.589257
4432.197026
4432.982367
4433.171601
4430.848084
4429.186247
4427.016646
4428.252500
4427.247537
4427.863123
4428.882481
4429.562983
4429.977970
4429.701103
4429.403650
4427.733827
4427.165155
4425.049399
4426.134620
4426.724400
4429.765686
4430.349741
4430.908510
4429.121809
4430.478761
4428.994615
4429.264644
4428.585290
4428.807700
4429.371508
4430.764142
4431.453764
4433.257968
4432.458976
4431.057343
4428.750683
4427.037889
4428.234591
4428.365294
4428.002125
4428.936730
4429.623091
4429.740927
4429.948638
4428.729161
4428.110357
4426.356622
4425.428990
4425.407129
4427.057212
4428.729861
4430.918945
4428.617392
4428.730457
4426.824540
4428.745384
4429.177234
4428.378251
4428.444639
4429.364378
4430.236540
4431.430979
4432.889409
4432.579068
4430.755524
4428.668790
4426.895489
4427.369268
4427.692732
4427.370160
4428.772343
4429.299747
4429.903309
4429.617736
4428.751790
4427.743087
4426.608640
4425.028987
4425.708415
4426.442315
4429.175194
4430.307106
4431.476100
4428.683620
4431.230218
4435.134787
4450.516620
4444.849915
4448.710361
4431.560123
4453.478941
4429.910216
4405.082100
4406.168479
4445.253133
4454.256222
4402.295403
4391.792624
4465.102478
4443.713740
4429.371055
4428.558651
4428.881741
4428.386323
4427.836158
4429.512018
4429.735264
4431.442157
4432.584284
4432.541528
4430.334213
4428.890744
4426.525784
4428.161548
4429.383416
4432.158481
4434.352556
4444.099991
4412.962256
4410.269999
4433.902234
4438.033023
4434.696638
4404.283685
4395.751131
4431.769363
4423.130000
4436.996513
4436.112318
4412.501865
4417.886848
4405.678748
4428.387888
4429.145304
4429.858943
4429.365994
4428.769273
4427.324734
4426.910628
4424.629152
4425.825830
4425.927647
4428.703864
4430.099769
4430.252117
4428.646909
4429.531461
4449.959517
4446.318364
4423.013241
4416.388882
4410.392249
4448.597650
4422.010063
4423.199039
4399.418069
4437.071772
4438.487482
4423.513977
4438.913809
4430.686568
4439.984155
4432.446490
4428.401580
4428.822256
4428.013128
4427.810532
4428.932998
4429.937413
4430.655444
4432.875913
4431.658490
4430.539266
4427.978815
4425.894779
4427.013915
4426.586798
4430.329290
4427.758622
4404.092953
4421.942540
4385.546093
4397.577394
4449.006887
4429.554180
4448.612981
4439.671966
4451.455727
4436.002119
4422.346875
4381.789031
4388.998789
4451.182478
4451.411021
4428.164454
4429.186011
4429.673970
4429.231059
4428.731420
4427.149819
4426.900289
4424.532271
4425.657737
4425.403652
4428.185026
4429.370219
4428.790574
4425.861164
4424.349945
4444.360019
4452.742260
4449.708766
4453.120322
4441.165344
4431.525985
4441.199474
4433.637383
4399.830019
4428.520938
4393.742611
4432.334954
4414.183258
4411.793272
4428.969673
4421.846649
4427.984418
4428.808073
4427.656330
4427.816804
4428.561567
4430.025416
4430.273061
4432.825502
4431.430331
4430.380586
4427.447051
4425.477029
4426.149855
4426.102071
4424.813070
4408.094160
4418.630252
4414.427099
4403.659128
4481.758538
4386.444917
4434.628353
4439.222913
4438.187071
4397.051863
4396.186493
4420.526656
4425.018305
4407.442632
4441.229601
4417.962477
4428.330978
4429.226244
4429.578652
4429.492332
4428.384450
4427.564425
4426.415232
4425.059984
4425.154026
4425.552089
4427.463575
4429.555727
4427.432953
4426.570061
4425.899395
4446.739532
4429.955875
4439.040715
4395.040390
4361.335337
4445.820995
4431.313859
4433.275782
4459.687047
4438.381634
4423.397279
4467.971971
4451.957759
4434.133738
4475.204189
4404.194072
4427.951697
4428.604616
4427.684411
4427.345746
4428.669419
4429.512713
4430.294236
4432.543073
4431.649936
4430.169854
4427.623923
4425.258444
4426.734771
4427.177534
4425.694335
4443.604647
4431.813272
4448.082397
4459.672494
4416.794463
4466.145688
4416.555585
4425.750682
4426.525747
4395.623299
4449.219425
4389.923241
4464.885047
4377.216894
4429.840004
4429.489485
4428.203754
4428.882917
4429.888753
4429.222326
4428.643617
4427.048251
4427.070455
4424.600384
4425.983421
4424.842164
4428.047452
4429.762351
4428.539527
4427.897957
4429.294356
4429.946605
4445.243531
4392.899665
4419.837132
4450.584917
4434.300796
4424.042138
4425.442773
4358.154665
4442.165263
4399.276504
4412.367498
4466.205768
4451.545987
4407.240203
4389.255202
4427.974199
4428.295468
4427.912404
4426.600160
4428.926913
4428.924177
4430.318717
4432.337682
4431.633845
4430.226056
4427.512200
4425.376701
4427.929849
4426.794006
4428.440439
4447.741391
4438.684385
4439.683494
4458.189260
4368.954390
4416.926518
4431.042032
4439.176627
4426.578047
4439.911886
4430.899091
4448.300489
4393.352897
4429.603876
4375.895937
4445.180092
4427.966461
4428.883973
4429.737671
4429.386989
4428.426293
4427.060630
4427.171263
4424.732169
4426.038763
4424.510127
4428.006686
4429.252905
4428.491494
4427.530309
4428.331993
4431.651353
4402.324776
4454.592869
4459.309290
4458.928762
4429.990325
4459.539105
4462.172865
4374.239688
4459.192940
4432.799446
4434.910776
4453.588250
4384.668973
4433.513473
4393.598764
4427.863036
4428.497874
4427.383849
4426.775313
4428.127533
4429.268373
4429.653837
4432.315040
4431.577256
4430.068679
4427.193131
4425.231521
4426.522859
4426.409754
4424.333558
4405.564370
4438.180510
4422.255610
4403.255113
4417.772093
4413.784790
4435.290867
4436.660722
4465.485209
4444.995619
4464.354797
4398.509876
4428.431596
4419.597355
4429.898819
4447.109223
4427.731686
4429.159111
4429.496246
4429.363736
4428.620492
4427.217155
4426.970875
4425.591123
4425.375162
4425.025327
4426.903416
4429.238704
4426.986868
4426.550949
4425.195249
4432.495064
4452.728762
4436.352519
4432.622516
4439.685591
4433.805139
4443.067398
4434.259782
4420.922919
4414.830522
4437.855435
4454.818756
4408.825001
4414.619687
4512.802975
4443.169803
4427.596654
4429.031766
4426.453206
4427.577331
4427.032388
4430.294029
4428.507999
4433.095462
4430.917183
4430.486440
4426.379101
4425.467495
4425.554042
4426.099473
4425.823766
4427.034605
4458.724910
4372.517671
4441.588092
4441.224144
4424.114094
4426.797784
4424.049350
4400.385993
4435.196254
4447.004055
4439.566963
4380.111978
4412.334802
4404.248536
4452.283452
4427.526040
4429.754618
4428.899371
4430.387075
4427.784269
4428.231731
4425.757734
4426.453704
4424.786868
4425.281798
4426.251364
4429.210981
4426.608754
4427.754585
4424.536795
4429.695357
4428.861483
4421.903344
4432.418616
4446.065058
4428.870292
4415.980289
4436.739898
4447.977008
4435.390051
4426.475671
4398.026565
4413.068861
4440.836732
4402.025045
4397.535756
4427.679622
4428.699342
4426.817688
4426.623395
4427.782151
4428.979532
4429.006064
4433.072320
4430.876577
4430.913706
4426.325695
4425.904214
4424.695743
4426.901797
4423.953723
4419.657763
4410.953006
4431.710753
4409.728584
4389.874331
4439.102723
4423.391336
4425.043340
4409.306881
4468.412132
4437.346004
4427.842563
4448.866493
4397.098158
4427.212416
4431.264547
4427.986989
4429.072827
4429.880428
4430.006359
4427.981879
4428.197752
4426.662363
4425.761613
4426.711408
4424.438900
4426.646627
4428.830846
4428.145727
4426.237753
4426.762780
4417.829090
4424.346359
4438.699709
4455.342013
4394.987746
4430.749724
4441.666838
4424.155919
4458.922745
4418.187328
4444.734684
4411.296668
4432.655492
4434.025301
4422.752214
4413.610212
4427.992054
4428.427621
4427.012894
4425.870910
4427.923127
4427.741045
4430.100934
4432.040810
4431.166254
4430.379700
4427.143822
4423.716874
4425.981737
4424.675499
4425.784552
4443.229510
4448.440489
4444.168842
4447.472082
4376.641412
4414.128211
4440.511733
4416.019438
4470.836760
4457.314886
4443.590227
4392.232482
4439.396409
4437.769269
4419.698485
4429.292853
4427.928876
4428.338895
4430.543423
4428.582316
4429.227281
4426.643450
4428.082383
4424.324021
4427.631950
4423.049881
4426.492922
4429.000050
4426.657036
4425.211794
4427.514223
4440.709027
4426.068953
4420.006050
4460.624324
4384.200889
4437.466718
4433.624429
4432.964461
4427.499735
4460.160054
4461.045073
4411.068885
4417.163764
4430.286886
4379.302215
4431.454762
4427.670622
4428.631357
4426.785658
4426.214339
4426.807943
4428.866386
4429.316965
4432.618506
4431.675447
4431.387765
4426.836327
4424.310968
4424.061439
4423.786500
4423.776241
4428.676909
4429.978921
4418.542037
4377.427345
4427.280929
4443.909639
4448.542262
4439.638480
4444.839643
4432.909890
4401.515821
4416.730368
4395.734885
4434.408023
4407.809936
4443.770709
4427.478759
4429.721215
4428.600814
4430.884531
4428.292612
4428.673113
4427.074343
4427.361479
4425.911702
4424.439721
4426.407263
4428.159452
4426.619953
4425.767704
4424.038285
4433.163489
4437.954483
4424.033952
4428.887615
4455.394679
4412.549624
4416.534320
4474.918456
4390.821204
4458.497011
4414.440675
4391.373776
4469.000296
4419.905491
4565.659506
4411.909770
4427.338844
4429.002116
4426.815303
4426.342972
4426.673495
4429.526395
4427.642147
4434.335652
4430.019939
4431.118970
4425.647691
4425.943993
4422.644475
4425.476821
4420.816696
4451.346180
4422.232852
4411.027752
4418.581750
4476.141995
4456.566731
4439.613134
4428.917258
4443.499583
4432.254168
4440.347517
4448.210850
4448.342437
4442.647856
4277.292319
4429.488831
4427.873434
4430.161330
4428.722786
4431.952546
4427.158179
4429.548117
4425.208486
4427.669109
4423.583456
4425.805564
4424.051329
4428.034434
4425.095499
4427.092920
4420.420390
4422.593028
4424.767642
4417.957409
4431.545787
4446.513904
4413.910478
4434.813638
4441.486437
4441.399932
4417.905564
4407.814096
4442.868095
4453.069629
4431.459666
4377.927002
4394.664582