# vtk DataFile Version 2.0
mfree iwf
ASCII

DATASET UNSTRUCTURED_GRID
POINTS 9954 float
0.000000 0.000445 0.000000
0.000000 0.000450 0.000000
0.000000 0.000455 0.000000
0.000000 0.000460 0.000000
0.000000 0.000465 0.000000
0.000000 0.000470 0.000000
0.000000 0.000475 0.000000
0.000000 0.000480 0.000000
0.000000 0.000485 0.000000
0.000000 0.000490 0.000000
-0.000000 0.000496 0.000000
0.000002 0.000500 0.000000
0.000485 0.000803 0.000000
0.000492 0.000808 0.000000
0.000533 0.000831 0.000000
0.000539 0.000832 0.000000
0.000539 0.000832 0.000000
0.000545 0.000835 0.000000
0.000552 0.000837 0.000000
0.000548 0.000836 0.000000
0.000561 0.000842 0.000000
0.000587 0.000851 0.000000
0.000593 0.000852 0.000000
0.000597 0.000852 0.000000
0.000602 0.000852 0.000000
0.000608 0.000852 0.000000
0.000612 0.000852 0.000000
0.000618 0.000852 0.000000
0.000621 0.000851 0.000000
0.000628 0.000852 0.000000
0.000634 0.000852 0.000000
0.000660 0.000854 0.000000
0.000005 0.000445 0.000000
0.000005 0.000450 0.000000
0.000005 0.000455 0.000000
0.000005 0.000460 0.000000
0.000005 0.000465 0.000000
0.000005 0.000470 0.000000
0.000005 0.000475 0.000000
0.000005 0.000480 0.000000
0.000005 0.000485 0.000000
0.000006 0.000490 0.000000
0.000004 0.000496 0.000000
0.000006 0.000499 0.000000
0.000529 0.000828 0.000000
0.000540 0.000825 0.000000
0.000568 0.000842 0.000000
0.000574 0.000845 0.000000
0.000579 0.000847 0.000000
0.000583 0.000847 0.000000
0.000586 0.000848 0.000000
0.000591 0.000847 0.000000
0.000596 0.000847 0.000000
0.000602 0.000847 0.000000
0.000609 0.000847 0.000000
0.000615 0.000848 0.000000
0.000622 0.000846 0.000000
0.000630 0.000847 0.000000
0.000634 0.000847 0.000000
0.000640 0.000847 0.000000
0.000650 0.000851 0.000000
0.000653 0.000851 0.000000
0.000647 0.000851 0.000000
0.000658 0.000852 0.000000
0.000010 0.000445 0.000000
0.000010 0.000450 0.000000
0.000010 0.000455 0.000000
0.000010 0.000460 0.000000
0.000010 0.000465 0.000000
0.000011 0.000470 0.000000
0.000010 0.000475 0.000000
0.000011 0.000479 0.000000
0.000009 0.000486 0.000000
0.000012 0.000489 0.000000
0.000009 0.000497 0.000000
0.000011 0.000498 0.000000
0.000533 0.000825 0.000000
0.000544 0.000825 0.000000
0.000557 0.000835 0.000000
0.000562 0.000838 0.000000
0.000567 0.000840 0.000000
0.000572 0.000842 0.000000
0.000571 0.000835 0.000000
0.000579 0.000839 0.000000
0.000583 0.000841 0.000000
0.000590 0.000843 0.000000
0.000597 0.000843 0.000000
0.000603 0.000844 0.000000
0.000606 0.000841 0.000000
0.000612 0.000839 0.000000
0.000618 0.000844 0.000000
0.000627 0.000845 0.000000
0.000643 0.000847 0.000000
0.000646 0.000848 0.000000
0.000654 0.000848 0.000000
0.000659 0.000844 0.000000
0.000015 0.000445 0.000000
0.000015 0.000450 0.000000
0.000015 0.000455 0.000000
0.000015 0.000460 0.000000
0.000015 0.000465 0.000000
0.000016 0.000470 0.000000
0.000014 0.000476 0.000000
0.000016 0.000480 0.000000
0.000014 0.000485 0.000000
0.000016 0.000489 0.000000
0.000014 0.000495 0.000000
0.000017 0.000497 0.000000
0.000025 0.000500 0.000000
0.000546 0.000828 0.000000
0.000559 0.000835 0.000000
0.000562 0.000830 0.000000
0.000573 0.000836 0.000000
0.000577 0.000843 0.000000
0.000585 0.000838 0.000000
0.000591 0.000838 0.000000
0.000594 0.000833 0.000000
0.000600 0.000840 0.000000
0.000613 0.000834 0.000000
0.000612 0.000844 0.000000
0.000622 0.000838 0.000000
0.000624 0.000842 0.000000
0.000630 0.000840 0.000000
0.000633 0.000842 0.000000
0.000639 0.000841 0.000000
0.000645 0.000842 0.000000
0.000650 0.000843 0.000000
0.000659 0.000841 0.000000
0.000020 0.000445 0.000000
0.000021 0.000450 0.000000
0.000019 0.000455 0.000000
0.000021 0.000459 0.000000
0.000019 0.000466 0.000000
0.000023 0.000469 0.000000
0.000019 0.000474 0.000000
0.000022 0.000479 0.000000
0.000019 0.000486 0.000000
0.000021 0.000491 0.000000
0.000021 0.000497 0.000000
0.000022 0.000499 0.000000
0.000039 0.000500 0.000000
0.000551 0.000821 0.000000
0.000553 0.000827 0.000000
0.000560 0.000827 0.000000
0.000564 0.000835 0.000000
0.000575 0.000831 0.000000
0.000583 0.000829 0.000000
0.000594 0.000838 0.000000
0.000587 0.000834 0.000000
0.000602 0.000832 0.000000
0.000607 0.000828 0.000000
0.000614 0.000827 0.000000
0.000617 0.000834 0.000000
0.000626 0.000836 0.000000
0.000631 0.000834 0.000000
0.000641 0.000836 0.000000
0.000643 0.000837 0.000000
0.000652 0.000837 0.000000
0.000654 0.000841 0.000000
0.000660 0.000837 0.000000
0.000025 0.000445 0.000000
0.000026 0.000450 0.000000
0.000025 0.000455 0.000000
0.000026 0.000461 0.000000
0.000023 0.000465 0.000000
0.000026 0.000472 0.000000
0.000023 0.000476 0.000000
0.000027 0.000481 0.000000
0.000024 0.000485 0.000000
0.000026 0.000488 0.000000
0.000026 0.000492 0.000000
0.000027 0.000500 0.000000
0.000509 0.000818 0.000000
0.000550 0.000828 0.000000
0.000553 0.000831 0.000000
0.000569 0.000831 0.000000
0.000571 0.000826 0.000000
0.000580 0.000834 0.000000
0.000588 0.000830 0.000000
0.000579 0.000830 0.000000
0.000593 0.000829 0.000000
0.000598 0.000835 0.000000
0.000607 0.000837 0.000000
0.000605 0.000834 0.000000
0.000617 0.000839 0.000000
0.000622 0.000832 0.000000
0.000636 0.000837 0.000000
0.000634 0.000831 0.000000
0.000648 0.000836 0.000000
0.000642 0.000831 0.000000
0.000654 0.000834 0.000000
0.000660 0.000832 0.000000
0.000030 0.000445 0.000000
0.000031 0.000450 0.000000
0.000029 0.000456 0.000000
0.000030 0.000460 0.000000
0.000032 0.000464 0.000000
0.000028 0.000468 0.000000
0.000032 0.000472 0.000000
0.000030 0.000477 0.000000
0.000031 0.000486 0.000000
0.000031 0.000492 0.000000
0.000033 0.000497 0.000000
0.000031 0.000499 0.000000
0.000049 0.000500 0.000000
0.000543 0.000819 0.000000
0.000561 0.000822 0.000000
0.000566 0.000827 0.000000
0.000567 0.000823 0.000000
0.000577 0.000825 0.000000
0.000588 0.000824 0.000000
0.000599 0.000828 0.000000
0.000593 0.000826 0.000000
0.000602 0.000825 0.000000
0.000611 0.000831 0.000000
0.000625 0.000827 0.000000
0.000619 0.000828 0.000000
0.000627 0.000831 0.000000
0.000630 0.000826 0.000000
0.000636 0.000830 0.000000
0.000647 0.000827 0.000000
0.000648 0.000831 0.000000
0.000654 0.000830 0.000000
0.000660 0.000828 0.000000
0.000035 0.000445 0.000000
0.000035 0.000450 0.000000
0.000035 0.000455 0.000000
0.000038 0.000455 0.000000
0.000034 0.000467 0.000000
0.000037 0.000473 0.000000
0.000032 0.000479 0.000000
0.000042 0.000478 0.000000
0.000035 0.000483 0.000000
0.000034 0.000488 0.000000
0.000038 0.000491 0.000000
0.000036 0.000498 0.000000
0.000477 0.000793 0.000000
0.000506 0.000817 0.000000
0.000554 0.000818 0.000000
0.000564 0.000818 0.000000
0.000577 0.000821 0.000000
0.000576 0.000816 0.000000
0.000582 0.000824 0.000000
0.000589 0.000818 0.000000
0.000598 0.000823 0.000000
0.000598 0.000818 0.000000
0.000607 0.000817 0.000000
0.000616 0.000825 0.000000
0.000618 0.000821 0.000000
0.000633 0.000820 0.000000
0.000639 0.000826 0.000000
0.000640 0.000817 0.000000
0.000645 0.000826 0.000000
0.000650 0.000823 0.000000
0.000655 0.000825 0.000000
0.000660 0.000822 0.000000
0.000040 0.000445 0.000000
0.000041 0.000450 0.000000
0.000036 0.000462 0.000000
0.000041 0.000458 0.000000
0.000041 0.000463 0.000000
0.000040 0.000468 0.000000
0.000041 0.000472 0.000000
0.000037 0.000477 0.000000
0.000041 0.000488 0.000000
0.000042 0.000491 0.000000
0.000041 0.000497 0.000000
0.000045 0.000498 0.000000
0.000411 0.000649 0.000000
0.000536 0.000823 0.000000
0.000548 0.000816 0.000000
0.000564 0.000811 0.000000
0.000572 0.000821 0.000000
0.000584 0.000820 0.000000
0.000580 0.000817 0.000000
0.000593 0.000820 0.000000
0.000605 0.000821 0.000000
0.000609 0.000823 0.000000
0.000603 0.000816 0.000000
0.000617 0.000816 0.000000
0.000623 0.000820 0.000000
0.000629 0.000817 0.000000
0.000626 0.000823 0.000000
0.000635 0.000824 0.000000
0.000641 0.000821 0.000000
0.000648 0.000819 0.000000
0.000655 0.000820 0.000000
0.000660 0.000818 0.000000
0.000044 0.000445 0.000000
0.000047 0.000450 0.000000
0.000044 0.000454 0.000000
0.000046 0.000461 0.000000
0.000044 0.000467 0.000000
0.000046 0.000474 0.000000
0.000046 0.000479 0.000000
0.000040 0.000483 0.000000
0.000052 0.000486 0.000000
0.000045 0.000483 0.000000
0.000048 0.000493 0.000000
0.000050 0.000498 0.000000
0.000412 0.000659 0.000000
0.000527 0.000826 0.000000
0.000557 0.000823 0.000000
0.000569 0.000817 0.000000
0.000571 0.000813 0.000000
0.000585 0.000815 0.000000
0.000590 0.000814 0.000000
0.000595 0.000815 0.000000
0.000602 0.000811 0.000000
0.000611 0.000815 0.000000
0.000613 0.000820 0.000000
0.000624 0.000817 0.000000
0.000615 0.000812 0.000000
0.000630 0.000813 0.000000
0.000636 0.000817 0.000000
0.000644 0.000816 0.000000
0.000645 0.000813 0.000000
0.000651 0.000816 0.000000
0.000655 0.000815 0.000000
0.000660 0.000813 0.000000
0.000049 0.000445 0.000000
0.000051 0.000450 0.000000
0.000049 0.000456 0.000000
0.000053 0.000458 0.000000
0.000048 0.000464 0.000000
0.000050 0.000472 0.000000
0.000051 0.000467 0.000000
0.000051 0.000477 0.000000
0.000047 0.000488 0.000000
0.000052 0.000491 0.000000
0.000058 0.000492 0.000000
0.000053 0.000498 0.000000
0.000441 0.000746 0.000000
0.000523 0.000817 0.000000
0.000537 0.000820 0.000000
0.000561 0.000814 0.000000
0.000574 0.000810 0.000000
0.000579 0.000811 0.000000
0.000583 0.000809 0.000000
0.000587 0.000809 0.000000
0.000599 0.000807 0.000000
0.000596 0.000811 0.000000
0.000605 0.000808 0.000000
0.000618 0.000808 0.000000
0.000621 0.000812 0.000000
0.000625 0.000811 0.000000
0.000633 0.000812 0.000000
0.000639 0.000806 0.000000
0.000638 0.000811 0.000000
0.000649 0.000810 0.000000
0.000655 0.000810 0.000000
0.000660 0.000808 0.000000
0.000054 0.000445 0.000000
0.000057 0.000450 0.000000
0.000054 0.000454 0.000000
0.000054 0.000463 0.000000
0.000057 0.000467 0.000000
0.000054 0.000472 0.000000
0.000057 0.000477 0.000000
0.000057 0.000481 0.000000
0.000053 0.000482 0.000000
0.000057 0.000486 0.000000
0.000056 0.000497 0.000000
0.000059 0.000496 0.000000
0.000455 0.000765 0.000000
0.000524 0.000826 0.000000
0.000529 0.000820 0.000000
[...]
POINT_DATA 9954
SCALARS density float 1
LOOKUP_TABLE default
4427.604357
4428.581735
4427.151781
4423.485220
4431.781549
4430.222995
4430.002179
4429.905338
4437.583632
4421.564581
4430.814860
4401.207453
4421.819558
4440.615147
4427.176778
4433.551658
4444.157769
4438.394234
4449.455066
4442.036267
4424.346731
4422.159427
4414.139965
4445.127322
4430.186321
4416.276115
4452.707810
4428.360207
4417.076281
4452.934353
4426.242422
4429.287193
4430.615588
4431.946985
4433.001802
4435.631742
4430.644828
4420.024408
4431.673406
4425.339078
4411.149184
4414.881970
4456.975885
4408.334186
4424.420149
4414.393674
4413.849868
4411.336401
4420.658500
4420.734352
4431.094938
4458.580703
4420.130821
4422.732149
4432.369210
4400.507867
4425.303339
4402.546459
4414.513318
4457.660918
4402.708430
4421.322944
4401.088997
4407.963122
4429.018836
4432.788858
4420.934381
4426.587381
4421.934645
4420.132354
4454.994127
4388.198589
4484.540812
4379.868896
4452.978177
4396.402553
4440.798198
4448.059779
4428.463974
4385.166351
4414.229313
4417.881542
4474.307888
4413.086812
4434.774350
4393.151834
4398.370558
4452.019316
4409.196634
4431.444785
4451.275252
4416.636431
4454.557830
4444.577503
4472.841190
4422.933951
4427.367573
4435.477728
4448.544236
4421.028302
4447.539169
4405.301111
4462.161844
4383.828040
4474.110755
4371.041595
4524.029786
4405.539146
4436.748790
4389.451992
4437.915696
4399.774143
4449.745092
4447.268319
4444.700512
4422.877130
4391.806530
4430.652967
4431.627899
4426.412388
4426.201606
4442.620432
4443.322037
4472.059821
4409.704195
4340.420143
4488.673890
4464.123441
4433.503176
4428.131139
4439.874299
4422.498086
4440.161315
4416.570830
4430.105414
4434.686137
4474.425955
4368.174919
4472.733812
4436.101071
4418.993839
4405.550113
4455.427682
4427.587722
4520.381745
4421.700884
4452.207700
4467.255555
4446.780648
4422.586159
4423.476348
4435.211193
4429.684762
4435.335938
4410.366365
4461.996232
4476.366505
4443.283004
4334.522795
4419.225874
4429.581210
4426.367186
4440.011197
4431.029594
4434.998121
4427.980468
4468.389147
4347.811891
4442.730083
4463.417375
4405.812781
4427.698066
4434.689849
4436.787755
4394.019558
4361.664447
4463.197023
4379.826869
4403.735987
4459.786988
4450.570529
4453.836918
4442.027319
4413.035868
4424.949953
4461.502730
4385.529267
4451.125862
4459.493349
4360.807735
4446.911796
4422.788238
4422.944054
4414.756240
4429.536057
4420.081042
4439.471104
4433.384783
4405.589018
4468.955639
4439.456278
4416.593789
4456.500651
4422.535211
4421.880142
4425.781747
4431.285458
4450.496306
4409.449902
4416.832628
4414.566699
4445.417474
4470.507703
4449.932180
4418.473778
4447.579877
4387.578706
4411.186742
4404.376278
4443.585066
4471.591730
4372.569533
4423.350822
4444.337897
4430.173340
4427.354813
4444.370189
4441.477096
4443.432283
4427.912593
4450.949193
4431.181831
4414.586292
4431.185034
4407.235320
4445.181301
4422.709681
4427.004901
4453.784566
4433.136889
4435.274930
4459.862958
4428.267463
4442.880474
4383.296099
4455.705525
4418.578098
4458.492179
4398.615401
4416.996068
4424.776549
4444.694707
4501.438890
4406.971171
4415.882476
4414.437454
4431.842053
4433.339070
4428.379788
4449.587206
4418.389847
4431.430441
4446.174780
4415.828886
4454.503225
4424.126583
4438.778126
4424.689744
4480.722804
4429.608875
4388.213831
4445.686063
4422.744442
4455.700190
4429.850349
4424.571742
4434.625800
4406.266402
4440.159489
4419.899958
4431.871284
4393.535360
4442.217830
4427.563096
4398.584409
4387.639670
4458.151487
4419.916039
4439.742073
4423.584778
4404.530677
4425.679932
4415.464361
4422.534630
4440.529950
4423.031067
4441.214068
4415.377295
4470.037225
4434.225511
4428.280642
4426.705940
4424.749411
4438.569958
4412.302360
4421.441212
4415.160528
4451.933030
4403.827291
4446.168075
4427.499958
4455.699913
4427.055289
4435.746878
4436.988627
4474.483154
4429.712729
4437.253206
4427.715917
4425.045812
4428.220367
4422.966910
4422.182859
4416.320725
4437.729607
4436.571673
4428.182585
4393.167085
4391.134380
4420.115303
4509.691643
4410.806805
4438.427230
4447.672910
4419.256445
4453.717933
4464.290417
4405.191275
4444.347854
4443.099201
4454.565825
4425.882706
4451.042825
4428.978479
4431.464621
4429.813282
4449.473698
4456.917949
4397.382918
4412.750157
4430.329368
4434.078549
4435.113690
4426.507250
4446.235055
4414.940424
4416.204845
4453.410349
4411.890614
4448.599276
4463.578213
4371.755083
4417.975757
4408.668094
4429.403532
4414.687143
4469.050274
4405.800871
4452.190452
4407.367099
4392.474990
4446.446537
4425.861202
4432.784246
4414.995604
4405.718544
4418.709023
4435.852917
4436.016232
4429.213631
4444.574323
4447.073939
4424.544430
4422.564910
4428.420477
4437.754705
4422.755851
4414.239682
4438.427666
4419.648037
4430.025394
4414.505425
4459.549839
4415.535366
4441.889213
4431.957366
4416.528289
4429.256441
4455.020030
4375.800124
4373.678262
4454.188624
4426.121754
4447.576310
4426.042453
4416.733536
4455.920013
4434.027231
4408.074740
4440.509515
4419.935386
4448.254640
4409.012430
4412.291374
4428.572872
4434.680727
4437.327104
4420.033895
4444.297359
4402.745452
4451.496108
4446.208377
4454.923129
4398.524786
4457.320920
4365.907110
4472.180515
4424.351499
4422.342295
4419.669536
4441.088840
4409.316632
4441.676151
4407.722841
4440.284998
4435.227078
4383.137622
4437.352833
4451.269266
4441.595451
4428.887307
4423.125254
4437.273193
4421.061031
4433.992723
4449.079884
4422.883312
4424.406853
4428.332262
4420.538346
4425.607377
4447.387932
4441.512824
4441.111509
4412.691497
4437.371309
4386.289712
4436.995726
4433.228184
4451.346185
4433.326200
4414.854552
4433.334638
4494.791644
4456.055699
4431.037223
4458.957052
4451.890966
4346.804583
4451.018864
4434.656614
4435.476360
4427.568578
4435.316876
4428.364332
4414.524206
4420.006856
4411.869114
4433.006389
4435.645019
4437.541088
4420.243969
4435.754105
4406.943092
4404.127060
4463.281007
4461.921484
4449.774967
4466.737784
4337.633407
4428.306492
4451.608824
4427.450924
4424.370996
4432.620085
4380.830796
4436.343689
4455.891615
4406.553866
4462.414028
4438.081607
4407.965661
4450.516647
4432.368422
4425.147353
4436.600790
4419.716171
4437.675119
4430.143234
4443.217312
4423.546828
4418.515555
4406.753461
4435.617377
4452.225791
4437.550248
4405.714686
4416.028525
4429.929066
4415.707956
4436.667514
4488.741100
4427.056747
4421.622717
4415.560943
4429.856047
4446.111769
4432.006456
4465.406590
4410.932377
4424.705168
4424.557554
4430.435433
4454.255851
4448.243768
4417.802540
4433.854627
4428.626135
4419.897019
4451.294980
4402.662227
4445.232814
4422.207516
4439.873916
4441.495549
4403.769201
4413.455185
4437.656605
4443.157705
4407.070280
4438.927417
4441.046011
4384.112979
4378.417634
4438.758429
4448.373031
4510.098594
4530.091158
4444.576248
4428.938583
4362.910188
4390.666538
4471.035262
4480.388371
4412.629073
4476.212422
4416.725659
4432.834764
4415.844205
4448.254029
4420.654695
4406.593483
4452.036234
4439.147971
4421.374719
4431.805137
4425.754693
4418.987230
4419.508795
4418.213926
4409.604348
4443.563808
4439.619920
4470.748351
4438.533565
4435.338936
4397.134233
4432.761497
4418.348506
4415.860265
4433.216977
4429.633081
4421.806582
4408.200679
4458.871253
4418.091258
4398.566752
4450.562489
4410.995740
4424.475240
4440.499073
4429.758938
4446.898087
4436.452540
4434.497808
4418.125074
4422.570561
4425.412894
4443.858090
4447.511962
4448.869377
4422.472605
4442.506423
4408.622474
4433.146141
4389.044510
4467.610863
4437.529880
4428.509001
4437.253129
4415.606285
4435.613401
4444.492686
4439.958386
4402.341030
4432.224607
4436.588368
4412.205872
4511.359812
4417.015789
4432.024353
4436.804922
4450.300995
4424.709660
4427.465877
4417.628009
4420.034222
4441.682966
4435.057326
4433.211185
4416.120826
4435.419540
4419.064571
4450.079196
4432.268318
4447.825896
4400.477375
4402.379401
4435.171649
4485.327045
4375.335076
4534.870934
4425.583010
4432.420966
4430.266803
4457.841566
4442.363119
4419.248515
4493.424777
4447.739177
4421.863095
4457.405552
4474.482231
4401.666275
4455.558896
4428.011410
4433.378151
4443.905600
4453.939195
4422.040379
4415.712607
4427.500848
4440.957067
4423.242169
4411.267201
4398.136146
4427.808353
4426.418298
4390.197992
4429.163315
4481.633514
4388.914554
4428.213414
4433.292862
4428.852293
4429.753996
4420.534724
4430.946293
4456.305571
4415.904324
4435.748502
4458.136399
4426.560014
4337.508749
4437.886573
4440.466145
4468.237698
4420.699076
4426.534547
4414.057663
4430.655220
4411.428379
4441.765512
4437.675404
4440.105511
4426.316595
4446.000967
4409.842524
4431.714196
4439.029126
4444.223299
4418.654540
4449.072194
4397.008478
4389.452256
4481.277091
4430.166138
4438.347659
4413.372748
4441.470225
4456.058441
4425.338390
4431.268430
4434.681609
4421.557130
4366.677276
4371.904378
4442.982224
4427.357421
4407.461771
4445.061811
4434.228777
4463.565434
4428.563950
4412.625907
4423.889498
4433.260505
4425.282585
4411.712493
4434.095218
4409.368301
4427.497307
4433.836618
4442.894269
4456.637290
4449.222100
4391.683884
4425.283851
4424.736785
4432.398973
4412.175894
4361.521334
4442.094284
4447.902325
4440.896961
4455.718336
4416.495533
4433.925867
4438.597397
4432.936619
4453.406919
4453.593781
4434.591530
4435.085627
4419.341538
4412.706259
4450.556516
4418.506866
4423.345390
4429.525432
4429.215250
4429.533074
4429.727083
4429.763341
4430.018530
4430.070400
4430.547807
4430.773395
4431.212961
4431.198350
4431.071540
4430.904955
4430.138471
4425.510344
4429.010829
4428.994163
4429.691326
4430.049672
4430.436241
4430.646042
4430.596671
4430.395502
4429.632687
4429.449370
4429.274387
4429.908774
4430.486586
4430.153244
4427.041064
4428.774878
4428.638522
4428.857259
4429.204224
4428.917392
4429.379434
4429.388452
4430.138103
4430.956964
4431.650619
4431.484001
4431.009928
4429.926471
4429.110672
4427.727402
4428.814711
4429.129079
4429.293511
4429.923172
4430.081773
4430.461723
4430.188532
4430.095126
4428.928747
4428.486141
4428.345080
4428.559453
4429.056569
4430.287804
4428.442560
4428.834588
4428.898504
4428.785578
4428.945801
4428.606475
4429.027177
4428.885515
4429.835088
4430.316344
4431.593452
4430.730308
4430.979230
4428.624098
4427.683909
4428.536212
4428.951383
4429.346932
4429.024600
4430.003071
4429.655646
4430.393875
4429.797185
4429.808234
4428.557137
4428.100583
4427.735132
4428.454407
4428.286518
4430.438824
4428.545934
4428.927935
4429.029798
4428.706439
4428.832467
4428.437769
4428.761557
4428.611918
4429.533175
4430.093766
4431.238044
4430.765938
4430.284678
4428.535818
4428.667796
4428.655451
4429.148247
4429.169640
4429.128339
4429.736690
4429.567419
4430.170669
4429.539092
4429.677388
4428.153321
4428.307869
4427.193815
4429.069557
4428.365726
4428.928828
4428.442871
4428.933470
4429.071366
4428.441632
4428.888380
4428.118072
4428.687358
4428.243059
4429.427059
4429.872139
4431.166202
4431.137896
4431.091079
4428.709128
4431.588745
4428.695533
4429.118077
4429.097340
4429.131580
4429.458065
4429.576087
4429.729879
4429.592338
4429.134137
4428.277473
4427.950199
4427.351613
4429.683351
4429.581917
4430.401513
4428.279931
4429.113626
4428.695518
4428.573137
4428.465385
4428.156923
4428.213487
4428.044488
4429.072340
4429.627179
4430.808860
4431.237417
4430.135227
4430.514951
4430.322478
4428.365641
4429.165021
4428.855415
4428.958901
4429.314218
4429.231761
4429.482433
4429.274048
4428.896054
4427.941904
4427.494264
4427.029288
4428.762041
4429.424066
4429.586227
4428.376970
4428.961630
4428.623386
4428.577316
4428.063540
4428.157709
4427.745716
4428.008327
4428.374256
4429.510939
4430.084743
4430.659412
4429.929143
4429.077139
4432.150236
4411.305652
4390.399273
4416.317827
4434.248805
4431.039496
4449.877115
4431.774958
4437.413103
4411.438001
4469.079538
4411.985191
4400.100145
4416.283932
4448.802632
4427.653484
4421.405402
4428.314828
4429.018220
4428.757577
4428.653330
4429.167820
4428.937690
4429.218803
4428.949967
4428.573900
4427.221549
4426.950542
4426.221951
4427.348167
4427.735999
4428.803877
4443.635031
4411.934351
4443.008823
4428.543158
4411.598661
4441.017257
4435.668926
4332.002284
4420.992175
4438.052785
4439.272094
4448.606006
4401.868718
4465.858161
4397.551219
4401.710251
4427.844366
4428.733641
4428.553317
4428.110646
4428.210654
4427.329846
4427.953506
4427.005737
4428.150718
4428.586644
4429.692248
4429.291174
4428.903734
4427.378886
4429.343372
4431.569189
4443.689624
4413.176911
4441.907011
4405.166193
4441.790223
4417.147761
4398.234615
4407.700531
4454.222442
4437.847263
4447.412233
4407.390155
4420.620794
4431.559405
4448.413189
4428.055341
4428.708081
4428.701235
4428.260911
4428.881817
4428.571181
4428.813556
4428.495507
4428.263550
4426.373006
4426.593995
4425.044721
4426.798200
4424.853967
4427.591947
4428.013280
4401.081466
4432.557956
4392.548448
4413.758057
4445.295519
4432.729012
4467.799270
4445.136193
4437.352656
4427.407033
4439.768591
4381.355784
4385.959455
4439.430050
4445.862118
4427.573559
4428.665616
4428.293448
4427.810437
4427.985778
4427.009660
4427.595466
4426.795064
4427.485897
4428.472429
4428.798614
4428.437451
4427.766179
4424.780107
4424.172125
4432.263811
4445.537171
4425.869364
4466.964667
4451.956939
4432.917178
4442.646689
4424.563022
4424.551584
4429.032565
4447.330416
4434.391959
4413.676196
4429.805251
4431.515919
4418.499768
4427.616562
4428.801676
4428.087827
4428.524179
4428.164024
4428.609121
4428.444733
4428.351254
4428.021039
4425.891319
4426.115853
4424.838776
4425.326882
4424.837320
4424.133601
4412.152981
4390.304141
4435.978395
4443.075604
4488.633362
4384.499700
4440.775551
4428.935624
4449.341570
4406.280109
4371.062762
4423.882325
4417.548377
4450.099169
4437.346931
4420.114476
4427.643068
4428.492880
4428.262310
4427.601917
4427.796861
4427.238004
4427.175757
4427.015038
4426.890647
4428.637501
4427.933078
4428.602618
4426.534346
4425.567397
4425.791959
4451.677212
4435.192949
4443.738337
4384.157816
4350.698583
4437.417691
4425.625327
4429.919776
4439.051290
4423.161380
4404.776211
4470.019999
4440.213144
4415.958962
4478.463163
4394.150890
4427.414931
4428.608390
4428.072418
4428.241854
4428.342811
4428.178731
4428.531147
4428.126082
4427.848848
4425.716481
4426.308401
4424.558113
4425.988806
4426.403848
4425.700873
4439.840961
4420.187993
4448.141577
4400.956217
4408.085052
4473.874326
4408.719843
4417.704665
4431.596998
4416.558475
4444.885213
4395.078439
4422.040748
4447.198806
4441.759041
4449.341062
4427.408439
4428.370509
4428.135876
4427.620809
4427.726639
4427.077565
4427.480286
4426.222507
4427.416166
4427.785895
4428.396825
4428.542790
4427.849213
4426.232468
4428.090068
4425.375699
4453.187422
4403.436405
4434.070558
4441.073803
4432.905356
4430.055170
4423.785458
4406.633547
4467.177884
4410.327209
4375.073509
4445.359506
4474.511708
4431.774902
4397.891754
4427.382462
4428.320167
4428.371241
4427.614878
4428.670160
4427.695132
4428.268768
4428.137802
4427.262779
4425.778007
4426.328078
4424.457188
4426.872117
4425.948230
4429.045014
4437.076267
4425.241785
4434.115019
4456.545503
4375.291975
4415.440089
4436.186177
4434.575726
4404.055834
4438.085751
4416.892444
4434.944142
4362.143522
4475.725366
4452.047331
4432.830469
4427.349397
4428.421099
4427.851946
4427.892780
4427.322507
4426.902300
4427.272527
4425.669402
4427.006782
4427.529398
4428.062650
4428.503045
4426.992418
4425.580625
4425.322791
4427.558157
4419.638317
4453.736975
4440.937092
4449.584770
4427.023352
4454.823415
4482.700418
4394.308965
4424.687865
4447.139111
4449.638580
4437.282131
4401.452552
4394.724280
4380.307884
4427.520865
4428.283158
4428.169646
4427.557871
4428.032695
4427.540468
4427.732912
4427.745519
4427.515573
4425.370495
4426.660321
4424.207225
4426.152198
4425.301031
4424.519891
4453.817213
4447.045104
4415.233550
4407.772122
4409.563827
4424.450809
4444.514420
4404.279966
4467.298455
4430.089500
4427.697732
4386.356353
4412.319397
4406.737184
4420.600933
4452.014094
4427.319817
4428.064797
4428.286093
4426.832724
4427.957847
4426.045908
4427.552277
4425.926725
4426.723593
4428.094712
4427.620516
4428.203789
4426.216211
4425.270057
4425.584330
4427.573023
4414.310646
4422.069321
4400.317439
4412.047559
4448.205365
4425.726529
4432.084939
4402.229277
4448.551544
4431.663017
4460.752276
4422.411957
4416.333610
4510.356159
4455.878838
4427.544743
4428.514615
4427.589418
4428.233655
4427.330102
4428.247596
4427.808246
4427.812476
4428.057371
4424.971610
4426.324914
4424.189070
4426.223023
4424.726611
4427.290167
4419.164928
4448.389730
4396.195101
4439.808782
4438.004647
4422.056137
4450.264493
4448.547162
4389.322071
4427.585180
4453.528644
4433.371383
4412.671939
4424.985502
4416.761134
4449.870836
4427.182319
4428.293987
4427.961532
4427.292567
4427.685572
4427.030724
4427.012333
4426.451969
4426.092602
4427.408794
4427.519810
4427.206961
4426.230547
4425.161664
4423.918600
4435.634692
4426.236655
4401.168590
4426.269196
4443.931722
4451.922540
4426.987045
4420.472916
4440.573962
4440.474122
4404.256256
4416.242298
4439.392474
4441.014246
4412.820686
4410.984463
4427.469192
4428.235398
4428.063421
4427.581177
4428.342562
4427.441700
4428.183166
4427.512469
4427.807806
4425.898929
4425.867012
4425.116619
4425.304281
4425.822916
4426.073746
4423.796244
4420.749187
4439.477849
4414.100236
4368.851209
4431.949292
4594.593512
4451.809555
4427.376168
4446.537160
4446.376154
4417.250276
4449.293384
4403.224529
4449.856834
4429.464312
4427.479382
4428.464927
4427.668704
4428.330119
4426.859998
4428.007024
4426.907294
4427.014418
4426.549552
4427.480881
4427.997154
4427.550925
4426.461112
4424.545008
4427.078403
4424.572838
4434.558005
4437.102692
4476.777098
4390.718374
4431.956132
4455.972535
4482.145260
4486.209076
4447.212044
4462.826861
4430.666124
4430.509801
4415.166624
4380.387814
4419.549277
4427.327488
4428.230068
4427.918236
4427.214627
4428.128875
4427.020284
4427.807258
4427.358393
4426.902961
4425.515940
4425.823256
4423.550436
4426.737291
4425.254089
4423.951549
4423.959485
4424.022804
4454.366939
4418.494921
4377.859200
4406.465602
4448.522826
4386.020553
4472.068250
4441.624181
4406.931187
4416.518680
4470.679621
4439.912617
4486.741108
4432.972707
4427.328210
4427.688018
4428.407997
4426.423741
4427.703494
4425.408663
4427.272484
4424.358164
4425.683198
4426.312084
4426.847216
4428.233360
4424.392808
4423.967347
4426.247430
4439.497066
4433.366775
4439.292622
4463.549475
4390.401260
4440.715969
4440.375564
4421.322236
4431.536804
4426.675096
4445.225063
4435.850898
4414.462855
4430.490384
4358.092501
4409.692860
4427.459900
4428.206146
4427.403135
4427.663020
4426.688522
4427.394001
4427.282233
4427.544821
4428.126928
4426.681088
4427.668182
4424.241874
4427.257404
4423.776009
4424.500354
4413.765735
4451.086129
4407.418064
4375.281786
4403.315609
4458.043176
4777.422385
4444.638633
4468.684894
4479.000619
4423.182795
4396.999403
4392.098172
4432.044482
4349.110335
4418.931084
4427.344460
4427.765361
4428.073607
4426.532466
4428.199578
4426.731046
4428.039153
4426.720364
4427.662261
4427.332090
4428.784674
4426.875474
4424.522811
4424.440210
4425.027047
4434.056044
4435.688960
4451.600085
4432.314250
4449.730037
4421.531182
4388.098341
4445.020593
4384.277710
4428.229286
4425.931055
4397.323184
4435.528331
4399.584843
4520.445030
4422.989508
4427.197973
4427.582733
4428.481038
4427.068839
4428.369372
4426.836849
4428.080462
4426.797510
4428.488075
4425.222680
4425.354202
4424.135894
4426.086692
4423.833084
4423.956376
4432.811871
4418.384630
4423.175815
4414.450333
4470.151677
4471.236124
4377.268472
4441.769176
4463.422357
4426.893852
4449.100245
4460.721159
4437.825893
4422.269590
4341.291656
4428.791230
4427.528945
4428.464243
4427.472024
4428.369072
4426.783015
4427.626381
4426.361987
4426.303042
4425.366128
4424.985711
4426.051667
4423.789471
4423.761433
4423.366225
4426.060777
4432.381878
4441.107358
4415.675228
4423.259005
4449.874658
4406.135515
4490.975602
4478.558134
4453.777595
4440.563393
4420.608368
4460.832157
4440.172412
4379.112490
4384.959981
4412.021276