# vtk DataFile Version 2.0
mfree iwf
ASCII

DATASET UNSTRUCTURED_GRID
POINTS 10239 float
0.000000 0.000445 0.000000
0.000000 0.000450 0.000000
0.000000 0.000455 0.000000
0.000000 0.000460 0.000000
0.000000 0.000465 0.000000
0.000000 0.000470 0.000000
0.000000 0.000475 0.000000
0.000000 0.000480 0.000000
0.000000 0.000485 0.000000
0.000000 0.000490 0.000000
-0.000000 0.000496 0.000000
0.000002 0.000500 0.000000
0.000589 0.000850 0.000000
0.000597 0.000854 0.000000
0.000641 0.000868 0.000000
0.000647 0.000868 0.000000
0.000647 0.000868 0.000000
0.000653 0.000870 0.000000
0.000661 0.000871 0.000000
0.000657 0.000871 0.000000
0.000671 0.000874 0.000000
0.000697 0.000878 0.000000
0.000704 0.000878 0.000000
0.000708 0.000877 0.000000
0.000713 0.000876 0.000000
0.000718 0.000875 0.000000
0.000723 0.000874 0.000000
0.000728 0.000873 0.000000
0.000732 0.000872 0.000000
0.000738 0.000871 0.000000
0.000745 0.000870 0.000000
0.000769 0.000868 0.000000
0.000005 0.000445 0.000000
0.000005 0.000450 0.000000
0.000005 0.000455 0.000000
0.000005 0.000460 0.000000
0.000005 0.000465 0.000000
0.000005 0.000470 0.000000
0.000005 0.000475 0.000000
0.000005 0.000480 0.000000
0.000005 0.000485 0.000000
0.000006 0.000490 0.000000
0.000004 0.000496 0.000000
0.000006 0.000499 0.000000
0.000636 0.000866 0.000000
0.000647 0.000861 0.000000
0.000678 0.000873 0.000000
0.000684 0.000874 0.000000
0.000690 0.000875 0.000000
0.000693 0.000875 0.000000
0.000696 0.000875 0.000000
0.000701 0.000873 0.000000
0.000706 0.000872 0.000000
0.000712 0.000872 0.000000
0.000718 0.000870 0.000000
0.000725 0.000869 0.000000
0.000731 0.000867 0.000000
0.000740 0.000866 0.000000
0.000743 0.000865 0.000000
0.000749 0.000864 0.000000
0.000760 0.000866 0.000000
0.000762 0.000866 0.000000
0.000757 0.000867 0.000000
0.000767 0.000866 0.000000
0.000010 0.000445 0.000000
0.000010 0.000450 0.000000
0.000010 0.000455 0.000000
0.000011 0.000460 0.000000
0.000010 0.000465 0.000000
0.000011 0.000470 0.000000
0.000010 0.000475 0.000000
0.000011 0.000479 0.000000
0.000009 0.000486 0.000000
0.000012 0.000490 0.000000
0.000009 0.000497 0.000000
0.000011 0.000498 0.000000
0.000640 0.000862 0.000000
0.000650 0.000861 0.000000
0.000665 0.000868 0.000000
0.000671 0.000870 0.000000
0.000676 0.000871 0.000000
0.000681 0.000872 0.000000
0.000679 0.000865 0.000000
0.000687 0.000867 0.000000
0.000691 0.000868 0.000000
0.000698 0.000869 0.000000
0.000706 0.000868 0.000000
0.000713 0.000868 0.000000
0.000715 0.000864 0.000000
0.000720 0.000862 0.000000
0.000727 0.000865 0.000000
0.000737 0.000865 0.000000
0.000752 0.000864 0.000000
0.000755 0.000864 0.000000
0.000763 0.000862 0.000000
0.000767 0.000858 0.000000
0.000015 0.000445 0.000000
0.000016 0.000450 0.000000
0.000015 0.000455 0.000000
0.000016 0.000460 0.000000
0.000015 0.000465 0.000000
0.000016 0.000470 0.000000
0.000014 0.000476 0.000000
0.000016 0.000480 0.000000
0.000014 0.000485 0.000000
0.000016 0.000489 0.000000
0.000014 0.000495 0.000000
0.000016 0.000497 0.000000
0.000025 0.000500 0.000000
0.000653 0.000863 0.000000
0.000667 0.000867 0.000000
0.000668 0.000863 0.000000
0.000681 0.000866 0.000000
0.000686 0.000873 0.000000
0.000695 0.000866 0.000000
0.000699 0.000864 0.000000
0.000700 0.000859 0.000000
0.000708 0.000864 0.000000
0.000721 0.000855 0.000000
0.000720 0.000867 0.000000
0.000729 0.000858 0.000000
0.000733 0.000862 0.000000
0.000737 0.000859 0.000000
0.000741 0.000860 0.000000
0.000747 0.000859 0.000000
0.000753 0.000858 0.000000
0.000758 0.000858 0.000000
0.000767 0.000855 0.000000
0.000020 0.000445 0.000000
0.000021 0.000450 0.000000
0.000019 0.000455 0.000000
0.000022 0.000459 0.000000
0.000019 0.000466 0.000000
0.000023 0.000468 0.000000
0.000018 0.000474 0.000000
0.000022 0.000479 0.000000
0.000019 0.000486 0.000000
0.000021 0.000491 0.000000
0.000021 0.000497 0.000000
0.000022 0.000499 0.000000
0.000039 0.000500 0.000000
0.000656 0.000853 0.000000
0.000659 0.000860 0.000000
0.000668 0.000858 0.000000
0.000672 0.000866 0.000000
0.000682 0.000860 0.000000
0.000689 0.000857 0.000000
0.000703 0.000865 0.000000
0.000694 0.000861 0.000000
0.000710 0.000855 0.000000
0.000713 0.000850 0.000000
0.000720 0.000850 0.000000
0.000725 0.000857 0.000000
0.000734 0.000856 0.000000
0.000739 0.000853 0.000000
0.000747 0.000853 0.000000
0.000750 0.000854 0.000000
0.000759 0.000852 0.000000
0.000762 0.000856 0.000000
0.000767 0.000851 0.000000
0.000025 0.000445 0.000000
0.000026 0.000450 0.000000
0.000025 0.000455 0.000000
0.000026 0.000461 0.000000
0.000023 0.000465 0.000000
0.000026 0.000472 0.000000
0.000023 0.000476 0.000000
0.000027 0.000481 0.000000
0.000023 0.000485 0.000000
0.000026 0.000488 0.000000
0.000026 0.000492 0.000000
0.000027 0.000500 0.000000
0.000616 0.000860 0.000000
0.000657 0.000863 0.000000
0.000661 0.000864 0.000000
0.000676 0.000861 0.000000
0.000678 0.000857 0.000000
0.000689 0.000863 0.000000
0.000695 0.000857 0.000000
0.000687 0.000859 0.000000
0.000698 0.000851 0.000000
0.000707 0.000860 0.000000
0.000716 0.000860 0.000000
0.000712 0.000859 0.000000
0.000725 0.000861 0.000000
0.000729 0.000852 0.000000
0.000743 0.000855 0.000000
0.000738 0.000849 0.000000
0.000755 0.000852 0.000000
0.000749 0.000848 0.000000
0.000761 0.000849 0.000000
0.000765 0.000845 0.000000
0.000030 0.000445 0.000000
0.000031 0.000450 0.000000
0.000030 0.000455 0.000000
0.000030 0.000460 0.000000
0.000032 0.000464 0.000000
0.000028 0.000469 0.000000
0.000032 0.000472 0.000000
0.000030 0.000477 0.000000
0.000031 0.000486 0.000000
0.000031 0.000492 0.000000
0.000033 0.000497 0.000000
0.000031 0.000499 0.000000
0.000049 0.000500 0.000000
0.000649 0.000854 0.000000
0.000667 0.000854 0.000000
0.000673 0.000858 0.000000
0.000673 0.000854 0.000000
0.000682 0.000855 0.000000
0.000694 0.000851 0.000000
0.000705 0.000855 0.000000
0.000700 0.000855 0.000000
0.000707 0.000851 0.000000
0.000716 0.000855 0.000000
0.000730 0.000847 0.000000
0.000725 0.000850 0.000000
0.000733 0.000851 0.000000
0.000737 0.000845 0.000000
0.000742 0.000848 0.000000
0.000750 0.000843 0.000000
0.000754 0.000847 0.000000
0.000760 0.000845 0.000000
0.000765 0.000841 0.000000
0.000035 0.000445 0.000000
0.000035 0.000450 0.000000
0.000034 0.000456 0.000000
0.000038 0.000455 0.000000
0.000034 0.000467 0.000000
0.000037 0.000473 0.000000
0.000032 0.000479 0.000000
0.000042 0.000479 0.000000
0.000035 0.000483 0.000000
0.000034 0.000488 0.000000
0.000038 0.000491 0.000000
0.000036 0.000498 0.000000
0.000579 0.000842 0.000000
0.000612 0.000859 0.000000
0.000661 0.000853 0.000000
0.000669 0.000850 0.000000
0.000683 0.000850 0.000000
0.000680 0.000845 0.000000
0.000688 0.000852 0.000000
0.000693 0.000846 0.000000
0.000704 0.000848 0.000000
0.000703 0.000843 0.000000
0.000712 0.000841 0.000000
0.000721 0.000846 0.000000
0.000725 0.000844 0.000000
0.000735 0.000840 0.000000
0.000744 0.000844 0.000000
0.000743 0.000834 0.000000
0.000752 0.000842 0.000000
0.000755 0.000839 0.000000
0.000759 0.000840 0.000000
0.000764 0.000836 0.000000
0.000040 0.000445 0.000000
0.000041 0.000450 0.000000
0.000036 0.000462 0.000000
0.000040 0.000458 0.000000
0.000041 0.000463 0.000000
0.000040 0.000468 0.000000
0.000041 0.000472 0.000000
0.000037 0.000477 0.000000
0.000041 0.000488 0.000000
0.000042 0.000491 0.000000
0.000041 0.000497 0.000000
0.000044 0.000498 0.000000
0.000488 0.000713 0.000000
0.000643 0.000860 0.000000
0.000652 0.000852 0.000000
0.000668 0.000843 0.000000
0.000678 0.000851 0.000000
0.000689 0.000848 0.000000
0.000684 0.000846 0.000000
0.000699 0.000847 0.000000
0.000709 0.000846 0.000000
0.000715 0.000847 0.000000
0.000707 0.000840 0.000000
0.000721 0.000840 0.000000
0.000725 0.000838 0.000000
0.000734 0.000836 0.000000
0.000732 0.000842 0.000000
0.000740 0.000841 0.000000
0.000745 0.000839 0.000000
0.000752 0.000835 0.000000
0.000758 0.000835 0.000000
0.000763 0.000832 0.000000
0.000044 0.000445 0.000000
0.000047 0.000450 0.000000
0.000044 0.000454 0.000000
0.000046 0.000461 0.000000
0.000045 0.000468 0.000000
0.000046 0.000474 0.000000
0.000046 0.000479 0.000000
0.000040 0.000483 0.000000
0.000052 0.000486 0.000000
0.000045 0.000483 0.000000
0.000048 0.000493 0.000000
0.000050 0.000498 0.000000
0.000490 0.000722 0.000000
0.000634 0.000864 0.000000
0.000663 0.000857 0.000000
0.000674 0.000848 0.000000
0.000674 0.000844 0.000000
0.000689 0.000843 0.000000
0.000694 0.000840 0.000000
0.000698 0.000842 0.000000
0.000705 0.000836 0.000000
0.000715 0.000836 0.000000
0.000716 0.000842 0.000000
0.000728 0.000841 0.000000
0.000719 0.000835 0.000000
0.000732 0.000832 0.000000
0.000740 0.000836 0.000000
0.000747 0.000834 0.000000
0.000748 0.000830 0.000000
0.000753 0.000832 0.000000
0.000758 0.000830 0.000000
0.000762 0.000827 0.000000
0.000049 0.000445 0.000000
0.000052 0.000450 0.000000
0.000048 0.000456 0.000000
0.000053 0.000458 0.000000
0.000048 0.000464 0.000000
0.000050 0.000472 0.000000
0.000051 0.000467 0.000000
0.000051 0.000477 0.000000
0.000047 0.000488 0.000000
0.000052 0.000491 0.000000
0.000058 0.000492 0.000000
0.000053 0.000498 0.000000
0.000535 0.000802 0.000000
0.000628 0.000857 0.000000
0.000642 0.000856 0.000000
0.000666 0.000846 0.000000
0.000677 0.000840 0.000000
0.000683 0.000840 0.000000
0.000686 0.000836 0.000000
0.000689 0.000838 0.000000
0.000702 0.000832 0.000000
0.000700 0.000837 0.000000
0.000708 0.000831 0.000000
0.000719 0.000831 0.000000
0.000724 0.000832 0.000000
0.000727 0.000833 0.000000
0.000736 0.000831 0.000000
0.000740 0.000824 0.000000
0.000740 0.000829 0.000000
0.000752 0.000826 0.000000
0.000757 0.000825 0.000000
0.000761 0.000822 0.000000
0.000054 0.000445 0.000000
0.000057 0.000450 0.000000
0.000053 0.000454 0.000000
0.000053 0.000463 0.000000
0.000057 0.000467 0.000000
0.000054 0.000472 0.000000
0.000057 0.000477 0.000000
0.000057 0.000480 0.000000
0.000052 0.000483 0.000000
0.000057 0.000486 0.000000
0.000056 0.000497 0.000000
0.000059 0.000496 0.000000
0.000552 0.000818 0.000000
0.000632 0.000865 0.000000
0.000634 0.000858 0.000000
[...]
POINT_DATA 10239
SCALARS density float 1
LOOKUP_TABLE default
4428.335718
4429.919567
4428.641606
4425.982939
4432.462390
4429.891824
4429.716690
4430.569865
4438.877198
4423.538204
4430.884266
4401.060622
4417.721886
4426.378679
4436.641608
4431.377754
4440.674450
4439.692232
4447.389024
4440.433427
4428.176164
4427.055798
4410.177645
4447.701159
4431.469499
4421.534880
4445.767205
4438.712807
4415.680577
4451.512261
4428.556093
4421.938762
4429.336365
4430.162003
4426.435225
4431.530982
4430.866565
4421.825487
4432.609819
4424.916451
4405.715995
4415.819369
4456.063291
4408.163199
4422.668635
4433.185067
4418.016395
4415.199513
4420.639105
4427.759711
4441.542335
4448.258001
4437.874866
4396.605446
4436.439565
4397.831590
4429.306353
4399.888530
4415.003705
4469.259869
4406.037473
4433.024151
4394.851705
4407.726026
4428.090935
4431.465795
4431.193781
4431.012223
4420.273966
4419.434364
4452.304464
4388.548473
4487.669988
4374.363407
4454.990031
4396.780157
4421.307620
4446.791069
4431.702501
4397.446404
4423.508848
4410.061134
4485.088960
4400.620236
4436.035808
4391.792054
4413.533772
4451.685634
4426.164250
4419.767331
4452.514263
4416.813295
4442.304757
4434.706687
4469.877086
4415.959826
4427.166707
4433.776673
4442.483600
4415.595508
4450.463054
4402.901693
4468.542579
4377.156995
4476.370384
4375.836445
4524.422494
4402.251887
4437.907926
4394.533748
4438.085802
4423.809957
4459.003023
4457.155979
4417.127978
4451.487756
4411.620682
4437.959287
4430.180974
4425.063273
4414.990529
4438.248096
4449.661097
4468.338165
4416.153505
4350.506639
4498.815959
4462.158344
4434.464671
4433.261082
4446.130987
4432.077520
4439.223149
4421.485410
4422.521125
4450.439129
4476.520867
4367.271897
4474.697253
4437.225582
4419.380683
4414.510067
4441.804840
4426.762009
4479.214314
4397.629266
4454.417646
4431.238724
4453.681954
4428.739423
4419.207386
4422.226598
4441.319619
4420.306729
4407.394466
4466.419863
4458.405768
4440.906454
4333.803843
4418.354379
4428.107420
4426.880042
4435.895896
4416.691096
4436.637556
4419.304423
4471.460015
4342.590811
4441.806965
4473.196904
4400.021022
4429.801747
4435.028689
4443.512062
4399.338900
4374.339542
4476.801988
4401.659553
4376.235205
4446.299183
4441.758297
4427.056591
4447.856054
4422.043597
4440.364004
4454.155776
4393.557543
4465.518725
4444.580568
4403.609670
4450.257141
4415.628814
4426.441282
4427.997270
4428.590331
4432.083258
4438.127637
4444.169217
4400.291492
4464.246871
4442.860003
4416.883853
4458.714732
4424.715269
4418.766409
4418.709856
4446.638937
4446.645668
4408.744437
4427.433022
4448.162586
4441.629696
4457.156360
4459.202489
4424.194346
4405.230443
4416.025898
4425.957204
4412.820140
4417.844291
4449.412874
4366.491386
4437.899982
4440.757182
4430.135199
4422.619049
4439.697709
4438.768922
4438.446412
4426.597708
4454.442060
4424.463451
4414.036295
4425.206444
4410.082989
4443.732761
4426.235220
4425.686952
4433.051056
4415.213061
4439.889053
4443.399378
4413.321925
4420.808768
4397.752632
4453.708069
4429.017617
4444.011843
4430.311099
4437.212441
4426.971192
4456.260759
4487.347306
4414.715593
4409.928723
4419.433112
4432.128382
4428.993468
4421.643668
4447.207807
4421.398453
4435.587984
4445.620010
4414.914366
4452.602618
4429.186541
4437.766355
4425.866451
4435.530709
4419.836025
4418.377402
4444.887552
4401.381910
4448.541199
4437.464041
4425.236529
4430.767601
4422.839868
4439.152211
4395.115415
4423.019407
4403.647243
4440.301019
4435.031330
4414.291176
4395.200359
4438.130983
4432.146245
4437.935958
4415.624221
4415.216700
4429.512169
4405.130384
4429.343408
4445.216597
4424.851062
4446.779839
4416.966214
4468.759478
4435.085689
4435.911882
4437.913135
4413.789847
4458.957570
4406.711331
4427.830966
4433.009839
4444.623616
4429.939402
4438.954687
4442.027122
4440.549973
4440.116144
4450.228487
4436.399685
4460.240202
4401.810499
4460.666475
4418.151897
4423.570333
4428.425169
4424.572801
4427.524037
4407.885193
4444.313648
4435.869848
4434.458343
4387.700237
4385.865275
4420.795786
4508.387448
4413.756985
4439.207213
4425.524035
4416.852947
4447.841767
4456.225730
4395.100658
4440.356115
4435.195576
4430.275486
4420.261329
4455.498107
4446.078597
4436.373674
4414.625987
4440.183529
4467.476511
4403.415234
4420.604566
4427.750568
4433.981329
4436.535644
4427.366699
4444.994522
4410.163023
4410.334072
4453.059820
4426.871725
4438.768787
4469.599869
4364.812644
4423.528973
4408.380628
4429.180522
4430.162322
4446.923133
4415.536482
4464.495932
4414.932146
4386.905868
4424.484760
4413.221350
4429.160141
4411.291509
4409.426049
4414.068730
4441.125489
4427.992575
4425.545282
4425.533557
4440.845204
4427.646395
4429.091454
4428.164252
4439.827033
4422.105800
4404.392619
4451.168083
4435.707198
4414.533571
4409.454993
4464.842172
4411.526310
4441.833653
4433.450992
4407.051168
4431.186441
4439.283029
4388.032621
4371.469605
4453.584812
4433.685663
4455.851428
4447.935023
4413.687393
4442.717223
4427.349597
4402.116256
4428.401219
4436.505812
4432.078845
4415.160489
4439.501217
4421.696335
4436.439130
4438.361024
4413.298973
4448.529289
4388.402788
4450.825291
4437.065615
4445.474196
4407.602718
4459.932796
4375.906916
4461.955830
4428.014672
4416.413504
4426.939791
4434.409537
4453.496116
4428.937066
4396.397575
4424.048274
4410.331664
4375.873652
4440.246318
4451.982482
4441.668495
4436.972039
4416.959180
4442.853458
4447.548287
4417.669314
4444.908496
4421.514555
4426.163060
4426.596549
4420.084868
4439.105774
4441.251278
4462.549736
4457.703670
4428.847193
4425.047194
4402.039221
4413.737903
4435.055890
4454.388891
4424.190325
4426.599143
4440.678323
4470.131937
4451.717897
4452.233228
4455.638926
4453.661297
4357.806226
4453.283998
4450.494707
4426.651212
4432.321394
4420.891162
4435.367235
4402.372452
4414.526983
4410.170074
4437.761252
4435.741882
4435.065428
4422.013091
4438.565335
4399.440004
4394.162505
4432.844081
4459.832821
4423.749936
4467.962074
4356.742938
4415.090534
4455.691863
4432.521804
4412.166006
4423.231473
4400.452751
4440.596967
4448.906318
4410.106419
4438.255368
4435.153545
4400.944483
4424.611086
4442.487826
4411.932420
4447.939753
4418.574662
4444.557443
4427.074234
4440.343660
4423.091577
4418.395789
4403.959403
4422.100256
4459.454694
4436.562221
4407.430358
4405.034353
4414.545722
4454.595564
4436.365571
4511.617466
4388.650114
4427.500561
4425.554966
4422.231886
4439.030544
4429.042420
4460.367984
4437.643616
4416.170013
4432.437561
4429.510830
4437.614861
4460.986553
4414.622139
4434.255884
4417.752943
4421.199127
4457.634887
4401.814466
4453.766152
4419.445357
4442.148616
4441.029240
4418.062537
4427.868561
4438.977887
4437.694339
4426.198754
4432.354487
4431.175769
4381.634947
4391.045014
4442.586496
4487.136561
4427.031563
4432.405595
4444.302711
4429.955564
4364.925352
4398.845475
4471.687682
4484.217425
4408.762642
4450.180346
4413.640213
4444.099030
4412.483991
4446.578585
4430.967236
4405.710554
4452.077244
4434.828728
4420.835697
4433.232423
4423.334090
4417.678442
4406.884728
4406.689932
4420.625949
4438.261563
4443.653759
4473.297970
4441.754863
4410.220197
4416.057622
4427.700006
4417.217493
4419.942040
4428.422598
4430.199944
4423.890898
4406.339732
4470.828401
4422.475455
4408.642194
4446.816911
4418.242311
4401.453540
4442.568052
4442.881167
4435.479319
4441.362461
4445.221245
4415.198628
4428.227333
4418.614698
4448.448451
4442.268072
4457.001067
4447.426690
4430.835636
4418.767386
4410.063765
4403.014417
4451.213006
4436.582454
4430.901851
4431.820904
4429.526674
4439.992268
4444.579372
4445.443841
4419.108787
4456.941272
4434.413988
4434.387516
4495.148129
4427.467462
4442.710309
4423.932509
4445.323528
4429.955976
4414.832051
4433.648658
4392.278669
4444.240327
4446.423098
4434.110694
4411.530507
4397.100058
4417.360683
4430.218090
4431.693474
4437.390380
4400.554667
4416.231804
4446.062093
4485.402409
4400.018236
4507.412709
4426.616636
4426.714434
4431.293014
4453.627245
4440.525709
4419.686313
4449.597508
4439.893132
4415.256090
4460.806885
4454.178150
4463.510587
4442.400994
4444.460331
4415.844572
4467.963989
4452.961521
4436.863011
4400.219456
4437.364322
4446.533289
4420.039236
4433.973167
4401.082421
4429.305921
4427.423089
4384.497939
4450.141072
4447.547910
4379.568908
4441.814275
4432.329435
4421.113734
4433.195371
4420.161178
4434.359510
4452.016207
4399.870615
4461.761926
4453.914960
4395.187456
4346.855998
4430.619893
4403.264381
4445.799015
4419.526773
4449.533299
4403.261651
4412.190804
4424.461007
4429.333599
4441.835334
4422.829866
4454.037488
4444.599694
4388.347194
4437.902314
4449.542840
4433.592738
4396.314680
4446.263009
4407.865624
4378.589722
4468.507698
4428.569232
4442.837729
4406.777364
4455.984500
4464.609971
4449.818543
4430.451568
4431.055279
4428.825336
4382.560508
4386.918468
4434.990670
4393.419599
4387.837675
4439.126677
4445.185351
4441.429370
4419.278106
4417.842333
4421.268312
4430.176103
4412.385560
4426.547459
4436.107069
4456.094878
4423.075084
4399.148907
4446.889305
4443.687861
4456.081994
4414.072055
4425.839583
4425.252372
4438.892640
4411.633845
4377.682427
4420.756410
4454.362375
4437.729446
4456.329855
4392.152093
4425.561977
4444.245037
4443.660351
4458.549207
4463.354966
4426.781672
4421.958692
4436.058761
4418.863140
4459.476993
4419.843488
4423.463434
4429.508503
4429.215858
4429.471438
4429.627711
4429.606888
4429.848957
4429.963428
4430.502487
4430.965762
4431.492026
4431.505859
4431.287853
4430.953014
4430.266724
4425.612027
4429.044598
4429.057432
4429.784394
4430.319851
4430.884088
4431.245888
4431.276892
4430.949597
4429.904187
4429.411134
4429.333475
4430.091887
4430.676201
4430.543586
4427.110381
4428.780106
4428.620726
4428.834388
4428.997599
4428.525932
4428.877641
4428.822724
4429.782183
4430.998811
4432.056172
4431.947142
4431.046147
4430.356305
4429.229374
4427.854227
4428.871440
4429.177928
4429.422275
4430.159593
4430.591934
4431.111886
4431.003567
4430.615226
4429.195384
4428.248780
4428.171580
4428.525923
4429.291383
4430.098939
4428.482444
4428.869415
4428.851812
4428.758971
4428.691322
4428.252454
4428.361655
4428.225248
4429.339769
4430.212468
4431.911829
4431.029018
4431.205258
4428.579625
4428.631887
4428.599853
4429.003743
4429.330223
4429.149522
4430.243575
4430.078384
4431.112943
4430.450708
4430.424338
4428.553780
4427.912681
4427.229478
4428.419517
4428.113528
4429.917807
4428.655851
4428.834113
4429.087425
4428.543711
4428.645018
4427.981439
4428.108585
4427.820838
4429.021236
4429.850648
4431.419051
4430.902935
4429.928399
4428.230016
4427.442356
4428.770862
4429.018763
4429.286966
4429.137319
4429.999858
4429.959481
4430.810649
4430.285749
4430.083879
4428.277236
4427.822003
4426.815678
4428.548488
4427.838251
4428.737006
4428.453288
4428.826212
4429.043655
4428.267960
4428.684812
4427.614326
4428.056429
4427.351564
4428.889014
4429.579079
4431.235657
4431.183559
4430.716418
4428.622866
4431.581811
4428.655585
4429.031589
4429.080038
4429.173041
4429.659757
4429.965246
4430.370906
4430.244873
4429.726726
4428.068848
4427.879556
4426.593682
4429.511899
4429.088441
4428.991386
4428.306423
4428.986375
4428.610077
4428.487588
4428.120247
4427.733359
4427.504601
4427.213852
4428.457116
4429.507604
4430.670477
4431.330803
4429.632562
4429.164949
4428.985543
4428.380356
4428.989296
4428.902403
4428.947633
4429.514826
4429.689448
4430.008402
4430.240049
4429.265252
4428.099335
4427.274652
4426.529106
4428.431631
4428.156441
4428.976199
4428.353621
4428.756081
4428.610153
4428.362584
4427.855427
4427.591315
4427.277091
4426.943425
4428.119403
4429.160160
4430.405351
4430.884742
4429.959761
4429.336251
4431.701487
4463.001911
4420.862616
4442.735264
4445.693674
4429.711735
4465.319713
4433.745506
4425.516676
4369.939129
4459.057732
4440.523515
4405.299120
4427.977169
4459.792647
4419.952477
4427.566731
4428.260030
4428.763726
4428.850535
4428.555562
4429.487189
4429.250932
4429.999623
4429.773165
4429.266581
4427.376535
4427.083169
4426.199252
4427.842060
4429.016032
4429.683240
4451.165659
4401.908195
4417.461485
4404.002613
4419.292719
4444.570102
4432.941454
4362.093233
4409.372462
4443.322008
4414.742633
4451.891508
4427.203843
4461.640991
4404.791434
4394.025840
4427.779606
4428.545878
4428.553285
4427.871570
4427.950683
4426.955905
4427.280749
4426.364474
4427.601751
4428.652676
4429.884715
4429.886293
4429.610089
4428.258010
4429.715617
4435.995433
4444.871664
4417.571921
4448.459225
4409.217838
4445.488521
4415.185435
4425.040966
4415.776987
4451.142650
4416.809836
4432.055104
4428.506506
4419.018230
4460.497865
4438.383502
4427.976189
4428.603598
4428.534543
4428.437002
4428.933418
4429.090363
4429.481046
4429.477915
4428.876131
4426.784146
4426.679887
4425.378748
4427.043544
4425.822976
4429.116527
4417.057504
4403.628096
4423.854109
4392.764534
4407.215059
4447.063364
4426.992856
4427.200696
4438.528492
4414.774063
4425.968545
4431.826774
4395.102771
4387.120947
4427.000857
4447.176544
4427.483811
4428.456996
4428.332422
4427.480765
4427.813169
4426.551829
4427.093505
4425.972354
4427.149201
4428.231840
4429.234921
4428.872216
4428.074577
4425.432016
4424.382823
4438.913545
4446.737919
4434.671611
4458.700373
4445.865150
4429.193755
4444.462286
4421.018158
4403.704256
4427.138677
4452.891961
4425.926340
4412.269470
4441.683566
4432.121614
4420.812767
4427.552581
4428.542158
4428.149008
4428.455534
4428.468238
4429.018945
4429.175108
4429.360625
4428.619084
4426.385505
4426.259131
4424.968875
4425.882985
4425.298896
4424.517453
4408.256722
4416.271414
4449.152683
4411.193033
4497.242914
4387.882511
4443.141200
4434.179854
4451.888334
4405.532220
4364.210720
4437.499183
4416.578979
4426.132035
4441.172279
4418.962237
4427.613309
4428.264124
4428.249019
4427.392319
4427.567729
4426.779728
4426.732608
4426.088981
4426.510284
4428.352542
4428.213939
4429.030903
4426.648871
4425.784805
4426.281613
4456.359192
4425.703291
4446.441559
4414.468076
4365.969498
4444.693552
4426.517403
4430.359399
4428.380193
4409.231166
4422.762217
4473.521690
4443.702088
4395.267191
4474.653079
4398.114572
4427.315522
4428.293268
4428.218348
4427.977914
4428.709044
4428.529188
4429.154781
4429.120094
4428.538241
4426.027876
4426.580002
4424.490937
4426.345143
4426.479254
4425.262787
4434.129897
4436.987171
4440.416168
4446.998050
4402.244934
4460.489441
4416.033003
4415.049123
4426.202840
4405.229675
4448.094751
4392.831350
4446.907505
4410.316533
4420.459596
4445.232042
4427.313422
4428.096032
4428.123280
4427.329002
4427.559770
4426.317710
4427.255065
4425.049702
4427.066194
4427.342253
4428.722707
4428.760254
4427.669806
4426.332790
4428.027984
4422.777226
4430.419805
4437.273110
4431.323393
4443.797941
4431.900244
4433.136294
4422.837798
4397.883519
4445.523657
4403.428728
4394.613830
4437.102595
4451.696529
4423.082760
4398.520485
4427.263663
4427.981978
4428.431635
4427.336097
4428.914501
4428.053379
4428.834622
4429.077737
4428.074715
4425.947069
4426.671731
4424.451953
4427.774215
4425.990177
4429.510533
4431.016318
4436.132156
4445.463551
4465.024985
4383.376610
4415.033879
4431.261829
4441.913478
4403.818854
4438.313080
4423.384348
4397.247117
4377.687613
4468.980006
4450.875188
4446.313535
4427.110275
4428.072820
4427.906895
4427.401167
4427.180328
4426.118065
4426.929289
4424.765352
4426.345172
4427.277133
4428.121413
4428.664196
4427.080965
4425.784327
4427.120666
4432.196971
4410.028424
4424.705319
4436.204175
4457.347777
4429.891461
4439.650956
4471.239085
4421.360076
4436.118627
4430.905162
4437.862540
4446.279047
4365.404526
4410.686024
4382.498436
4427.277928
4428.091539
4427.941031
4427.477422
4428.099239
4428.005582
4428.329062
4428.683836
4428.256416
4425.607322
4426.604953
4424.449341
4426.410374
4425.882281
4424.387817
4420.914846
4453.664225
4404.203768
4397.934573
4379.014797
4418.476483
4451.066239
4449.394974
4462.005507
4430.663291
4453.758413
4391.819705
4433.911198
4413.924330
4426.138069
4442.953100
4426.942423
4427.885697
4428.103525
4426.603208
4427.589655
4425.674287
4427.010611
4425.125620
4425.948380
4427.447775
4427.651581
4427.897431
4425.655351
4425.249386
4424.561351
4419.176074
4442.466238
4433.378366
4408.899523
4419.855353
4442.333141
4435.902782
4434.847564
4415.561065
4445.308788
4399.377845
4465.509989
4425.948760
4456.558154
4509.045720
4456.648971
4427.152975
4428.332146
4427.350754
4428.084397
4427.463666
4428.731344
4428.058305
4428.978141
4428.220537
4425.730942
4425.815517
4424.668176
4425.958792
4424.494259
4427.293095
4447.662009
4432.865787
4416.883639
4455.360454
4431.749870
4423.124678
4424.620710
4439.366429
4409.344661
4407.426291
4439.517096
4434.928262
4408.282689
4444.818543
4419.879981
4452.181489
4426.764110
4428.218729
4427.641739
4427.298287
4427.073368
4426.678375
4426.271683
4425.520668
4425.350149
4426.746175
4427.325834
4426.832181
4425.339941
4424.968533
4423.553099
4430.983928
4408.292228
4411.668468
4427.032287
4446.353604
4437.498482
4511.108874
4443.575251
4423.043270
4451.212504
4415.114715
4401.547276
4431.643604
4424.021577
4415.377987
4404.494967
4426.962130
4428.021690
4427.828257
4427.254213
4428.498097
4427.758386
4428.475652
4428.574150
4428.237632
4426.101405
4425.932384
4424.957947
4425.331206
4425.409561
4424.777968
4409.217300
4434.247128
4417.983120
4423.948884
4353.878653
4439.064296
4489.055727
4426.587105
4402.329009
4460.639210
4424.608674
4444.018095
4445.907934
4446.091166
4398.551812
4430.527218
4427.048789
4428.143177
4427.747483
4427.797921
4426.711391
4427.118416
4426.612396
4425.637190
4425.829922
4426.557104
4427.398111
4426.865936
4425.660978
4423.400058
4426.636366
4399.474748
4410.702346
4411.242654
4456.558628
4388.480641
4432.015835
4430.600618
4446.283464
4421.297809
4443.241591
4456.271099
4411.996801
4398.492308
4440.352978
4432.186040
4424.987429
4426.995458
4427.993285
4427.668690
4426.917370
4428.096808
4427.191174
4428.243826
4428.112483
4427.523709
4425.453435
4426.237710
4423.151810
4426.172754
4424.296024
4423.523889
4436.986783
4418.172557
4438.897219
4438.159580
4379.054425
4410.222338
4430.737072
4418.668793
4454.281028
4458.548019
4435.692890
4405.700816
4457.265394
4440.100665
4470.080808
4430.129895
4426.844995
4427.421938
4428.457045
4425.804846
4427.730074
4424.614850
4427.171083
4423.278175
4425.332704
4425.437571
4426.286799
4427.231423
4423.621417
4422.977127
4424.189551
4411.379467
4459.392909
4428.074084
4467.572250
4387.777004
4438.393954
4428.794810
4430.303854
4425.257230
4444.168581
4450.626171
4448.922055
4419.784601
4451.161914
4386.110602
4417.719156
4427.050068
4428.087557
4427.291033
4427.389434
4426.980439
4427.831497
4427.877316
4428.542726
4428.437927
4426.918905
4427.341747
4424.255803
4425.856391
4423.475018
4424.771620
4420.230649
4424.181234
4412.362603
4383.475642
4416.121603
4456.180824
4754.220894
4423.157351
4446.793366
4448.679961
4389.557085
4409.145988
4375.076226
4420.319708
4352.290117
4433.467484
4426.892152
4427.983780
4427.584811
4426.925483
4427.598834
4426.433570
4427.313245
4425.802583
4426.785604
4426.029805
4428.125664
4425.932231
4424.400014
4423.314284
4423.658284
4421.567091
4432.181431
4447.005431
4420.395971
4441.089031
4424.965107
4530.595626
4472.219422
4397.351217
4436.696533
4444.418180
4411.348179
4440.573294
4413.594429
4531.603923
4416.838249
4426.849889
4427.771561
4428.296210
4426.704888
4428.343691
4427.373507
4427.921573
4427.994776
4428.341127
4426.000318
4425.268382
4424.782906
4425.577978
4424.167168
4423.572604
4434.121155
4415.406389
4430.120737
4416.563639
4463.660262
4465.545697
4469.982128
4422.417740
4460.383142
4424.102402
4462.501234
4431.745503
4442.487155
4423.789048
4328.121181
4430.182009
4427.317004
4428.550832
4427.385764
4428.546000
4426.432992
4427.074330
4425.746210
4425.553380
4424.195919
4424.339507
4425.111986
4423.537524
4423.428892
4423.391556
4423.168021
4432.868985
4415.876123
4401.689206
4435.661815
4451.848120
4407.670932
4482.689718
4463.595730
4441.281930
4415.631254
4410.204004
4464.003741
4443.766571
4379.865878
4386.592868
4406.845330