# vtk DataFile Version 2.0
mfree iwf
ASCII

DATASET UNSTRUCTURED_GRID
POINTS 9624 float
0.000000 0.000445 0.000000
0.000000 0.000450 0.000000
0.000000 0.000455 0.000000
0.000000 0.000460 0.000000
0.000000 0.000465 0.000000
0.000000 0.000470 0.000000
0.000000 0.000475 0.000000
0.000000 0.000480 0.000000
0.000000 0.000485 0.000000
0.000000 0.000490 0.000000
-0.000000 0.000496 0.000000
0.000002 0.000500 0.000000
0.000378 0.000749 0.000000
0.000383 0.000757 0.000000
0.000416 0.000789 0.000000
0.000422 0.000792 0.000000
0.000422 0.000792 0.000000
0.000426 0.000796 0.000000
0.000432 0.000800 0.000000
0.000430 0.000799 0.000000
0.000440 0.000807 0.000000
0.000463 0.000823 0.000000
0.000469 0.000825 0.000000
0.000473 0.000827 0.000000
0.000477 0.000828 0.000000
0.000483 0.000829 0.000000
0.000487 0.000831 0.000000
0.000493 0.000832 0.000000
0.000496 0.000833 0.000000
0.000502 0.000834 0.000000
0.000509 0.000836 0.000000
0.000533 0.000844 0.000000
0.000005 0.000445 0.000000
0.000005 0.000450 0.000000
0.000005 0.000455 0.000000
0.000005 0.000460 0.000000
0.000005 0.000465 0.000000
0.000005 0.000470 0.000000
0.000005 0.000475 0.000000
0.000005 0.000480 0.000000
0.000005 0.000485 0.000000
0.000006 0.000489 0.000000
0.000004 0.000496 0.000000
0.000006 0.000499 0.000000
0.000413 0.000785 0.000000
0.000425 0.000787 0.000000
0.000447 0.000810 0.000000
0.000453 0.000814 0.000000
0.000457 0.000816 0.000000
0.000460 0.000818 0.000000
0.000463 0.000819 0.000000
0.000468 0.000820 0.000000
0.000473 0.000822 0.000000
0.000479 0.000823 0.000000
0.000486 0.000825 0.000000
0.000492 0.000827 0.000000
0.000498 0.000828 0.000000
0.000506 0.000831 0.000000
0.000510 0.000832 0.000000
0.000515 0.000833 0.000000
0.000523 0.000839 0.000000
0.000526 0.000840 0.000000
0.000521 0.000839 0.000000
0.000531 0.000843 0.000000
0.000010 0.000445 0.000000
0.000011 0.000450 0.000000
0.000010 0.000455 0.000000
0.000011 0.000460 0.000000
0.000009 0.000465 0.000000
0.000011 0.000470 0.000000
0.000010 0.000475 0.000000
0.000011 0.000480 0.000000
0.000009 0.000486 0.000000
0.000012 0.000490 0.000000
0.000009 0.000497 0.000000
0.000011 0.000498 0.000000
0.000417 0.000783 0.000000
0.000429 0.000787 0.000000
0.000438 0.000799 0.000000
0.000443 0.000804 0.000000
0.000446 0.000807 0.000000
0.000451 0.000811 0.000000
0.000452 0.000803 0.000000
0.000460 0.000809 0.000000
0.000463 0.000813 0.000000
0.000469 0.000816 0.000000
0.000475 0.000817 0.000000
0.000481 0.000821 0.000000
0.000485 0.000818 0.000000
0.000491 0.000819 0.000000
0.000495 0.000825 0.000000
0.000503 0.000828 0.000000
0.000518 0.000833 0.000000
0.000521 0.000835 0.000000
0.000529 0.000838 0.000000
0.000535 0.000836 0.000000
0.000015 0.000445 0.000000
0.000016 0.000450 0.000000
0.000014 0.000455 0.000000
0.000016 0.000460 0.000000
0.000014 0.000466 0.000000
0.000017 0.000470 0.000000
0.000014 0.000475 0.000000
0.000017 0.000480 0.000000
0.000014 0.000485 0.000000
0.000016 0.000488 0.000000
0.000014 0.000495 0.000000
0.000017 0.000498 0.000000
0.000025 0.000500 0.000000
0.000430 0.000790 0.000000
0.000440 0.000800 0.000000
0.000444 0.000797 0.000000
0.000454 0.000806 0.000000
0.000455 0.000813 0.000000
0.000465 0.000810 0.000000
0.000469 0.000811 0.000000
0.000475 0.000809 0.000000
0.000479 0.000816 0.000000
0.000492 0.000815 0.000000
0.000489 0.000823 0.000000
0.000499 0.000821 0.000000
0.000503 0.000824 0.000000
0.000508 0.000825 0.000000
0.000510 0.000827 0.000000
0.000516 0.000827 0.000000
0.000523 0.000830 0.000000
0.000527 0.000832 0.000000
0.000536 0.000833 0.000000
0.000020 0.000445 0.000000
0.000021 0.000450 0.000000
0.000019 0.000456 0.000000
0.000022 0.000459 0.000000
0.000018 0.000465 0.000000
0.000022 0.000467 0.000000
0.000019 0.000475 0.000000
0.000022 0.000478 0.000000
0.000020 0.000487 0.000000
0.000021 0.000491 0.000000
0.000021 0.000497 0.000000
0.000022 0.000499 0.000000
0.000039 0.000500 0.000000
0.000435 0.000786 0.000000
0.000438 0.000791 0.000000
0.000443 0.000793 0.000000
0.000446 0.000802 0.000000
0.000457 0.000801 0.000000
0.000465 0.000804 0.000000
0.000474 0.000813 0.000000
0.000469 0.000806 0.000000
0.000481 0.000812 0.000000
0.000487 0.000807 0.000000
0.000495 0.000810 0.000000
0.000498 0.000814 0.000000
0.000505 0.000819 0.000000
0.000510 0.000819 0.000000
0.000519 0.000822 0.000000
0.000520 0.000825 0.000000
0.000529 0.000827 0.000000
0.000531 0.000831 0.000000
0.000537 0.000829 0.000000
0.000025 0.000445 0.000000
0.000025 0.000450 0.000000
0.000026 0.000454 0.000000
0.000025 0.000460 0.000000
0.000025 0.000467 0.000000
0.000025 0.000471 0.000000
0.000024 0.000476 0.000000
0.000027 0.000481 0.000000
0.000023 0.000484 0.000000
0.000026 0.000488 0.000000
0.000026 0.000492 0.000000
0.000027 0.000500 0.000000
0.000397 0.000771 0.000000
0.000434 0.000791 0.000000
0.000436 0.000795 0.000000
0.000451 0.000798 0.000000
0.000455 0.000796 0.000000
0.000460 0.000804 0.000000
0.000469 0.000801 0.000000
0.000463 0.000799 0.000000
0.000475 0.000805 0.000000
0.000480 0.000808 0.000000
0.000485 0.000814 0.000000
0.000488 0.000811 0.000000
0.000496 0.000818 0.000000
0.000502 0.000815 0.000000
0.000514 0.000822 0.000000
0.000514 0.000817 0.000000
0.000526 0.000825 0.000000
0.000522 0.000818 0.000000
0.000533 0.000824 0.000000
0.000538 0.000824 0.000000
0.000030 0.000445 0.000000
0.000030 0.000450 0.000000
0.000029 0.000457 0.000000
0.000033 0.000460 0.000000
0.000029 0.000463 0.000000
0.000030 0.000468 0.000000
0.000032 0.000472 0.000000
0.000030 0.000477 0.000000
0.000031 0.000487 0.000000
0.000031 0.000492 0.000000
0.000033 0.000497 0.000000
0.000031 0.000499 0.000000
0.000049 0.000500 0.000000
0.000427 0.000781 0.000000
0.000447 0.000789 0.000000
0.000449 0.000794 0.000000
0.000452 0.000790 0.000000
0.000460 0.000795 0.000000
0.000473 0.000797 0.000000
0.000481 0.000803 0.000000
0.000475 0.000800 0.000000
0.000486 0.000803 0.000000
0.000492 0.000807 0.000000
0.000505 0.000810 0.000000
0.000500 0.000809 0.000000
0.000507 0.000814 0.000000
0.000512 0.000811 0.000000
0.000516 0.000816 0.000000
0.000527 0.000815 0.000000
0.000528 0.000820 0.000000
0.000534 0.000820 0.000000
0.000540 0.000820 0.000000
0.000035 0.000445 0.000000
0.000035 0.000450 0.000000
0.000037 0.000454 0.000000
0.000034 0.000457 0.000000
0.000035 0.000466 0.000000
0.000037 0.000472 0.000000
0.000032 0.000479 0.000000
0.000042 0.000479 0.000000
0.000035 0.000482 0.000000
0.000034 0.000488 0.000000
0.000038 0.000491 0.000000
0.000036 0.000498 0.000000
0.000372 0.000738 0.000000
0.000394 0.000768 0.000000
0.000440 0.000782 0.000000
0.000450 0.000786 0.000000
0.000462 0.000791 0.000000
0.000461 0.000786 0.000000
0.000467 0.000796 0.000000
0.000473 0.000793 0.000000
0.000482 0.000800 0.000000
0.000482 0.000795 0.000000
0.000492 0.000797 0.000000
0.000498 0.000805 0.000000
0.000502 0.000803 0.000000
0.000515 0.000806 0.000000
0.000520 0.000813 0.000000
0.000522 0.000806 0.000000
0.000524 0.000814 0.000000
0.000532 0.000813 0.000000
0.000535 0.000816 0.000000
0.000541 0.000815 0.000000
0.000040 0.000445 0.000000
0.000040 0.000450 0.000000
0.000037 0.000462 0.000000
0.000041 0.000456 0.000000
0.000042 0.000462 0.000000
0.000039 0.000468 0.000000
0.000042 0.000473 0.000000
0.000037 0.000477 0.000000
0.000041 0.000487 0.000000
0.000042 0.000492 0.000000
0.000041 0.000497 0.000000
0.000045 0.000498 0.000000
0.000345 0.000585 0.000000
0.000422 0.000783 0.000000
0.000434 0.000780 0.000000
0.000451 0.000778 0.000000
0.000457 0.000791 0.000000
0.000466 0.000792 0.000000
0.000468 0.000788 0.000000
0.000478 0.000795 0.000000
0.000487 0.000798 0.000000
0.000492 0.000802 0.000000
0.000490 0.000793 0.000000
0.000501 0.000798 0.000000
0.000507 0.000804 0.000000
0.000513 0.000802 0.000000
0.000509 0.000806 0.000000
0.000517 0.000808 0.000000
0.000525 0.000809 0.000000
0.000531 0.000808 0.000000
0.000537 0.000811 0.000000
0.000542 0.000811 0.000000
0.000045 0.000445 0.000000
0.000046 0.000450 0.000000
0.000046 0.000455 0.000000
0.000045 0.000462 0.000000
0.000044 0.000467 0.000000
0.000046 0.000473 0.000000
0.000046 0.000479 0.000000
0.000040 0.000484 0.000000
0.000052 0.000486 0.000000
0.000046 0.000483 0.000000
0.000048 0.000493 0.000000
0.000050 0.000498 0.000000
0.000345 0.000594 0.000000
0.000412 0.000783 0.000000
0.000442 0.000787 0.000000
0.000456 0.000784 0.000000
0.000458 0.000783 0.000000
0.000472 0.000787 0.000000
0.000476 0.000788 0.000000
0.000480 0.000790 0.000000
0.000486 0.000790 0.000000
0.000496 0.000794 0.000000
0.000496 0.000800 0.000000
0.000507 0.000799 0.000000
0.000501 0.000793 0.000000
0.000515 0.000797 0.000000
0.000521 0.000801 0.000000
0.000526 0.000804 0.000000
0.000530 0.000802 0.000000
0.000534 0.000806 0.000000
0.000538 0.000806 0.000000
0.000544 0.000806 0.000000
0.000050 0.000445 0.000000
0.000051 0.000450 0.000000
0.000048 0.000455 0.000000
0.000052 0.000459 0.000000
0.000049 0.000464 0.000000
0.000050 0.000472 0.000000
0.000050 0.000468 0.000000
0.000051 0.000477 0.000000
0.000047 0.000488 0.000000
0.000053 0.000491 0.000000
0.000058 0.000492 0.000000
0.000053 0.000498 0.000000
0.000351 0.000682 0.000000
0.000411 0.000775 0.000000
0.000424 0.000780 0.000000
0.000448 0.000781 0.000000
0.000462 0.000779 0.000000
0.000465 0.000782 0.000000
0.000469 0.000783 0.000000
0.000474 0.000782 0.000000
0.000488 0.000784 0.000000
0.000484 0.000786 0.000000
0.000495 0.000785 0.000000
0.000505 0.000790 0.000000
0.000506 0.000795 0.000000
0.000511 0.000795 0.000000
0.000518 0.000798 0.000000
0.000525 0.000794 0.000000
0.000524 0.000798 0.000000
0.000533 0.000799 0.000000
0.000539 0.000801 0.000000
0.000545 0.000801 0.000000
0.000054 0.000445 0.000000
0.000056 0.000450 0.000000
0.000055 0.000455 0.000000
0.000055 0.000462 0.000000
0.000056 0.000466 0.000000
0.000055 0.000473 0.000000
0.000057 0.000477 0.000000
0.000057 0.000480 0.000000
0.000052 0.000483 0.000000
0.000057 0.000486 0.000000
0.000056 0.000497 0.000000
0.000060 0.000497 0.000000
0.000358 0.000704 0.000000
0.000409 0.000782 0.000000
0.000417 0.000778 0.000000
[...]
POINT_DATA 9624
SCALARS density float 1
LOOKUP_TABLE default
4430.358851
4428.762776
4424.078005
4421.278193
4424.177577
4430.013659
4433.326229
4438.312435
4444.812137
4424.231202
4434.166410
4399.330051
4424.396791
4440.697591
4432.926233
4431.668397
4442.575295
4442.875848
4452.970720
4445.907440
4421.033814
4425.435357
4413.788865
4446.928180
4429.272279
4419.212926
4443.864097
4443.380579
4417.083445
4455.811744
4437.557303
4446.721372
4426.340728
4430.725845
4428.487903
4438.383505
4440.325914
4427.087441
4424.178296
4413.725626
4393.276481
4428.346727
4438.895238
4402.829397
4425.595594
4431.805804
4413.262251
4409.867097
4416.372586
4408.753938
4427.121673
4455.300315
4413.603136
4435.329638
4425.552444
4394.188530
4421.579587
4394.545766
4399.689082
4432.408636
4404.932880
4411.325573
4411.680653
4417.310451
4421.523653
4431.766144
4438.696797
4408.714310
4426.317049
4401.910366
4460.836377
4400.829112
4486.063745
4358.372430
4473.736316
4406.464634
4413.150171
4496.057385
4429.031912
4386.851564
4402.486585
4421.905635
4453.420487
4403.251027
4450.724707
4403.553681
4410.048468
4425.229541
4416.332798
4400.902272
4452.088633
4404.983877
4451.689248
4448.928707
4454.828920
4418.921729
4435.787210
4444.347879
4437.771747
4427.843118
4463.203444
4411.246523
4454.005686
4363.592648
4477.420801
4409.821315
4516.566649
4397.043486
4437.827580
4341.189191
4434.044089
4419.893131
4439.767346
4451.045703
4435.007084
4425.826633
4440.889681
4428.886220
4406.181073
4456.234563
4407.406042
4468.566704
4446.747857
4480.633264
4434.353836
4339.622026
4500.829525
4452.734837
4435.665492
4423.905628
4436.535526
4430.987576
4435.081618
4424.873507
4439.852891
4457.287335
4475.375147
4356.214471
4478.973098
4441.080686
4421.673829
4389.037364
4470.796430
4409.776477
4536.513201
4438.938725
4478.744539
4442.938591
4410.445399
4395.445076
4414.431211
4438.591166
4443.932968
4415.934508
4390.201035
4456.878172
4466.537134
4448.901846
4344.941058
4438.052476
4430.079711
4448.854690
4427.505038
4435.677415
4449.476741
4403.731048
4444.966895
4369.539133
4420.822564
4465.354881
4406.080871
4429.814288
4424.606346
4462.922074
4383.046297
4334.247588
4472.199434
4382.086937
4423.325848
4405.733348
4430.405703
4423.612249
4469.036524
4430.044206
4444.612741
4435.596395
4373.969700
4483.012103
4458.561463
4364.188493
4428.555906
4418.370271
4431.246103
4420.216120
4417.790556
4441.267896
4419.587863
4450.457424
4414.737548
4452.757868
4438.045301
4421.964235
4453.967321
4425.665118
4416.378020
4428.016502
4422.277572
4466.278856
4401.689244
4420.109936
4447.525169
4456.715248
4417.447760
4428.261120
4423.815368
4419.106878
4396.697160
4450.511228
4387.910350
4441.010470
4489.859029
4387.250928
4429.982373
4445.990305
4434.084482
4420.988112
4440.309729
4443.267232
4417.240368
4429.424683
4456.831825
4419.404842
4410.477979
4436.147653
4411.295651
4444.564424
4421.304456
4419.209568
4440.966922
4442.236773
4444.389009
4439.997002
4442.521167
4423.200528
4435.113708
4429.104021
4418.468952
4454.090304
4424.120830
4445.056553
4389.680420
4448.503139
4483.428304
4385.787204
4423.940411
4414.085819
4428.688244
4422.184968
4425.724058
4382.289171
4448.262857
4443.120628
4435.626932
4418.171989
4450.996043
4434.905065
4441.559782
4423.378174
4566.830729
4395.864846
4430.284049
4441.209780
4410.184430
4424.798334
4437.851703
4434.067092
4440.875438
4424.216982
4453.887660
4399.547549
4449.632214
4389.040958
4441.253131
4445.466588
4414.711735
4402.008588
4452.377399
4431.773338
4431.676915
4426.707731
4442.949658
4425.750581
4395.167161
4426.151645
4453.961699
4428.113996
4453.808096
4411.563623
4467.202804
4439.600994
4489.839538
4421.250559
4421.632899
4449.004976
4447.837121
4438.005586
4426.858742
4451.321289
4426.154061
4434.627178
4441.347162
4430.884649
4434.807499
4446.759756
4402.703998
4436.348960
4440.590008
4464.119004
4405.564090
4420.715672
4432.018099
4404.682745
4446.789516
4410.234846
4417.592903
4447.719056
4449.301552
4365.592351
4376.828036
4409.336646
4518.502195
4416.123377
4432.926696
4479.114608
4429.174213
4440.671775
4454.001649
4408.757648
4463.547181
4415.622734
4455.639936
4411.411827
4447.286168
4402.646423
4443.596756
4434.350512
4441.992389
4435.333136
4434.804372
4408.020988
4429.252651
4435.637680
4427.611611
4424.691755
4436.376418
4459.808553
4402.297448
4420.792877
4438.339764
4442.889222
4470.883119
4348.117539
4426.627351
4396.657741
4432.846627
4407.110106
4489.487324
4427.740435
4441.586321
4416.579755
4415.293292
4459.364191
4388.213811
4439.110616
4442.982330
4411.077820
4425.224573
4422.097467
4433.906226
4437.077062
4449.561399
4440.575291
4435.387163
4414.414522
4424.869517
4414.622243
4459.936549
4429.975164
4424.836966
4456.506751
4436.578086
4418.842612
4488.968001
4420.403804
4439.784344
4432.247473
4412.570609
4435.059488
4430.004908
4387.331690
4371.691863
4456.383676
4433.020215
4439.347847
4408.606295
4417.862611
4440.919467
4435.125015
4414.234913
4426.749175
4457.883382
4454.055711
4418.228386
4414.715015
4424.514329
4432.716794
4439.715342
4423.431717
4406.152428
4464.556656
4434.334563
4420.781248
4392.867018
4444.456466
4452.755180
4359.115912
4469.849896
4427.193878
4425.093884
4410.955998
4441.070996
4435.031689
4456.911746
4404.959301
4405.030406
4418.407422
4401.517869
4423.389103
4463.304841
4453.992108
4404.345001
4428.406494
4419.753504
4426.091191
4427.472421
4449.510313
4425.335140
4426.783694
4427.860487
4433.944007
4410.060372
4397.710145
4417.897980
4460.606901
4401.802261
4436.623293
4368.148614
4443.360147
4431.167992
4449.455956
4434.866237
4417.147797
4422.106729
4475.403043
4450.961234
4433.805276
4454.375888
4474.564404
4369.417505
4436.624315
4419.788426
4424.249767
4422.465783
4451.582107
4429.090936
4436.413048
4426.237893
4415.993778
4423.530543
4430.234380
4438.475641
4421.346004
4418.916062
4449.272120
4443.032296
4430.832597
4447.781006
4465.877245
4480.840305
4326.326287
4439.408123
4452.685639
4428.572370
4416.348935
4421.404023
4344.290316
4429.675250
4457.942268
4420.142901
4453.056997
4442.199006
4415.057241
4443.998064
4451.271012
4440.765618
4442.575967
4410.097098
4436.401753
4420.674713
4440.542609
4428.785592
4425.255459
4420.792488
4425.016074
4443.634637
4409.201909
4424.576865
4391.688747
4460.144694
4409.475784
4450.604647
4492.637902
4422.879573
4418.178298
4417.174617
4433.544346
4451.708146
4430.073464
4445.110678
4411.958768
4422.400195
4420.286321
4443.399521
4458.638579
4444.010064
4438.724308
4442.843603
4415.655025
4434.676756
4420.614097
4426.639397
4448.566955
4413.752458
4437.249043
4440.646935
4422.026493
4424.862483
4454.828381
4463.924303
4426.694886
4426.904593
4439.699112
4384.081777
4352.169620
4429.507466
4469.031294
4469.999584
4472.028433
4450.194500
4436.187868
4396.505994
4389.369011
4466.633292
4472.584722
4460.273583
4491.082668
4418.080597
4402.836002
4430.770799
4455.016896
4397.098819
4413.910790
4434.197944
4433.955635
4429.398630
4427.716743
4421.104572
4427.605245
4438.943302
4419.066354
4412.776753
4452.894923
4449.046810
4474.876325
4446.197935
4441.029700
4394.164532
4428.640308
4417.393099
4416.782313
4431.778352
4413.666931
4436.421763
4426.334846
4407.750959
4401.070984
4393.163649
4444.211633
4397.360434
4428.693438
4442.846875
4432.564236
4460.156690
4443.992902
4414.486833
4419.997000
4430.271586
4420.705345
4443.358725
4431.830148
4408.238804
4421.949289
4407.685527
4409.896683
4423.885151
4390.884479
4486.301413
4435.687476
4427.743300
4436.822786
4411.109971
4425.718986
4450.238216
4427.957864
4420.371620
4433.611031
4445.515065
4400.051039
4504.472067
4408.101685
4445.059504
4408.085833
4430.737349
4418.952251
4440.490922
4393.462294
4431.189496
4441.053680
4427.663769
4430.416813
4421.089963
4416.135585
4447.838616
4423.891837
4447.894520
4451.397351
4387.293049
4402.437581
4440.642724
4472.579448
4389.827327
4542.550673
4430.749030
4429.575520
4424.463789
4457.496993
4435.478346
4448.960987
4440.301221
4442.112459
4423.431486
4464.140755
4478.350635
4391.941846
4463.258015
4446.151444
4433.627387
4457.203866
4453.764598
4402.051071
4433.279891
4422.861378
4447.618821
4424.945390
4415.339277
4408.066777
4448.324577
4397.497857
4381.952071
4441.238887
4489.946910
4369.865915
4429.120317
4433.597094
4433.557992
4429.312329
4421.402411
4405.401836
4442.784468
4451.641318
4462.897054
4443.094666
4403.748002
4339.214323
4455.131024
4454.154271
4474.481678
4412.387266
4415.550030
4420.900418
4429.973462
4413.486504
4443.095400
4432.271323
4428.139614
4424.812613
4455.453202
4442.778817
4425.114642
4427.179329
4454.491876
4419.069157
4449.091781
4394.738119
4386.554988
4474.828531
4429.547911
4446.369368
4413.457616
4464.889883
4449.898475
4439.309371
4434.864586
4405.119293
4437.028849
4360.964374
4334.669837
4444.725976
4419.718409
4413.749992
4456.598335
4426.336503
4473.888687
4425.622554
4413.536536
4425.538016
4434.110907
4442.244952
4405.914127
4429.774665
4405.644246
4407.776569
4438.271097
4424.071799
4449.380927
4453.243642
4411.495660
4427.888337
4412.308518
4421.811782
4390.100629
4361.246885
4460.503036
4462.716200
4420.505979
4432.989923
4450.040486
4433.546319
4430.149888
4446.598496
4459.757032
4455.922279
4444.883302
4434.945914
4412.044874
4411.163821
4447.194212
4422.942880
4421.509801
4429.117599
4428.816855
4429.177084
4429.537950
4429.650384
4429.980091
4430.053336
4430.445531
4430.608389
4430.984966
4430.961675
4430.970440
4430.466781
4429.880644
4424.032811
4428.413883
4428.413899
4429.126246
4429.552853
4429.809284
4430.176943
4430.178935
4430.391041
4430.000733
4430.072914
4429.963546
4430.207978
4430.562194
4431.172606
4425.935445
4428.259638
4428.130473
4428.422125
4429.025700
4428.851126
4429.470468
4429.399131
4429.991005
4430.286762
4430.929343
4430.671327
4430.503510
4430.469629
4429.132445
4426.791909
4428.371921
4428.542125
4428.829557
4429.324160
4429.496291
4429.809298
4429.748009
4429.912926
4429.358931
4429.139722
4428.879241
4429.229338
4428.842507
4429.827012
4427.777594
4428.469366
4428.532865
4428.400242
4428.869806
4428.522942
4429.178168
4428.918684
4429.618651
4429.622178
4430.612178
4429.852355
4430.339534
4428.142545
4428.761880
4427.958080
4428.564676
4428.962544
4428.493936
4429.586834
4428.927452
4429.875889
4429.096086
4429.821811
4428.663857
4428.952192
4428.196814
4428.673929
4428.004691
4428.979512
4428.071058
4428.696318
4428.657188
4428.481922
4428.704738
4428.403307
4428.891256
4428.657182
4429.261319
4429.354588
4430.190409
4429.791924
4429.830844
4428.171181
4429.471558
4428.209829
4428.987330
4428.630787
4428.859832
4429.102131
4429.156887
4429.274079
4429.229366
4429.176355
4428.715339
4428.561719
4427.977343
4429.005493
4428.048745
4428.337451
4428.034752
4428.841482
4428.563761
4428.474111
4428.514956
4428.325087
4428.546426
4428.530627
4428.885397
4429.289936
4429.868509
4430.212020
4429.799160
4429.367486
4429.272318
4428.289007
4428.952131
4428.603086
4428.802259
4428.911459
4429.023520
4428.988646
4429.059659
4428.766128
4428.697224
4428.172483
4428.418422
4429.093118
4429.622521
4430.604130
4427.885238
4428.853034
4428.394306
4428.330973
4428.351079
4428.097353
4428.273062
4428.135990
4428.700474
4428.802950
4429.917205
4429.728465
4430.613890
4429.863667
4430.036425
4427.941376
4428.901332
4428.433948
4428.574127
4428.807577
4428.584966
4428.880020
4428.489653
4428.733197
4428.006526
4428.100491
4427.790898
4428.753602
4429.337042
4431.090912
4427.885218
4428.707566
4428.276219
4428.286024
4427.966949
4428.062505
4427.768608
4428.118575
4427.957233
4428.803257
4428.790588
4429.405213
4429.297849
4429.198583
4430.023391
4428.352618
4430.374994
4409.242767
4444.209886
4423.528595
4460.809305
4431.906726
4420.673254
4396.141188
4457.463792
4452.014962
4434.307870
4405.552405
4442.751867
4427.190718
4415.702789
4427.807668
4428.749471
4428.315276
4428.298088
4428.579313
4428.384634
4428.445515
4428.313337
4428.099312
4427.455113
4427.296007
4426.909811
4426.895332
4427.896908
4427.763916
4433.011791
4433.880425
4407.111990
4413.466198
4416.696801
4444.758770
4431.734032
4371.986082
4433.794273
4408.082624
4425.212510
4452.402083
4413.552133
4461.255035
4394.894043
4402.071176
4427.353112
4428.422519
4428.195652
4427.889084
4428.035544
4427.277582
4427.985335
4426.984087
4427.964543
4427.637104
4428.461829
4427.943386
4428.359790
4426.623190
4428.782948
4432.559006
4453.103158
4426.789099
4436.693226
4407.828239
4446.999773
4421.630198
4399.766239
4437.465520
4446.784733
4447.431744
4412.597144
4424.368160
4421.843774
4396.628128
4444.988136
4427.477828
4428.360689
4428.399526
4427.735910
4428.523248
4427.869408
4428.192908
4427.765829
4427.799176
4426.547176
4427.017716
4425.350463
4426.580264
4423.772701
4426.917852
4420.512106
4415.999179
4392.308148
4383.450615
4404.970222
4444.858690
4438.745318
4459.964512
4407.739462
4407.427687
4439.548163
4453.950218
4378.134961
4392.551331
4423.114423
4436.021537
4426.979677
4428.359277
4427.864687
4427.719683
4427.726237
4427.023609
4427.584470
4426.800620
4427.377104
4427.444878
4427.561777
4426.938055
4426.962033
4424.226723
4423.427618
4435.742095
4441.625466
4421.950581
4465.378794
4456.999637
4432.994614
4431.519787
4433.608616
4399.187063
4465.305521
4432.262878
4458.992297
4401.485780
4397.107257
4434.959747
4412.863109
4426.967517
4428.434628
4427.753167
4428.047749
4427.708595
4427.976491
4427.752513
4427.597285
4427.488610
4426.094981
4426.258923
4425.328073
4424.725270
4424.489905
4422.806489
4425.321069
4410.088713
4438.652500
4439.252362
4487.101693
4385.969980
4435.754052
4425.209312
4442.197533
4389.877526
4393.976187
4429.276456
4414.952161
4449.247819
4448.210316
4422.995917
4426.977570
4428.088825
4427.973783
4427.254158
4427.722814
4427.055773
4427.167482
4427.145728
4426.649032
4427.750642
4426.694358
4426.996586
4426.337694
4424.958268
4425.268690
4445.046715
4437.375657
4451.107764
4390.508162
4342.196506
4434.826333
4428.739758
4424.905264
4434.651049
4448.160374
4420.065564
4459.199880
4460.262509
4409.163241
4480.823941
4391.024497
4426.772303
4428.261492
4427.646938
4427.940081
4427.746014
4427.619070
4427.981694
4427.173054
4427.510031
4425.754380
4426.431865
4425.221029
4425.379574
4425.406588
4425.459575
4436.359641
4412.304407
4446.209174
4404.068363
4403.640026
4474.308250
4447.077501
4426.873514
4427.710865
4409.021917
4462.387393
4374.553812
4441.673365
4458.558144
4445.104740
4438.006630
4426.690501
4428.075453
4427.762985
4427.344162
4427.570374
4427.152101
4427.308852
4426.649311
4427.185922
4427.022682
4427.334044
4426.989315
4427.320463
4426.602734
4426.950281
4428.307390
4449.286192
4401.206894
4431.291760
4443.411981
4430.701098
4412.301040
4416.466691
4407.728797
4444.742783
4404.867287
4373.494292
4438.408733
4465.376452
4415.433033
4405.140176
4426.669843
4427.998885
4427.961385
4427.388082
4428.184982
4427.236302
4427.752280
4427.410287
4426.705122
4426.097034
4426.220680
4425.040284
4426.379373
4425.151548
4427.654485
4428.603501
4440.008009
4432.306988
4443.498972
4373.803524
4413.331582
4392.847761
4439.516402
4413.991334
4435.283267
4408.022428
4434.505387
4323.235644
4422.471953
4490.847831
4436.906764
4426.704337
4428.123733
4427.594495
4427.709162
4427.206437
4427.096142
4427.286333
4425.940044
4427.171324
4426.649855
4427.033035
4427.229683
4426.366293
4425.036018
4425.177475
4432.827494
4437.482083
4437.605244
4431.450646
4432.232786
4428.501024
4437.119761
4488.440004
4409.545962
4431.259051
4434.451675
4440.289583
4455.273928
4468.274362
4407.449606
4388.453054
4426.830966
4428.002772
4427.936656
4427.265216
4427.919537
4427.068460
4427.303352
4427.193326
4426.799754
4425.779287
4426.671750
4424.484232
4425.835538
4424.662262
4423.416167
4448.418240
4450.570867
4442.751026
4438.871209
4413.547250
4421.801188
4439.419725
4445.629906
4477.807506
4422.672629
4411.766042
4383.965332
4428.460400
4392.081358
4392.509006
4464.926925
4426.868510
4427.905135
4428.048589
4426.996535
4427.715280
4426.455029
4427.488315
4426.266333
4427.041362
4427.433486
4426.766796
4427.169001
4425.875179
4425.340563
4427.083845
4434.051709
4399.854960
4432.125304
4408.599996
4391.830891
4456.010767
4418.793184
4454.950963
4386.918315
4391.762179
4437.852942
4421.570649
4442.059292
4399.163201
4469.996969
4472.195840
4427.014657
4428.279765
4427.511759
4428.042214
4427.246959
4427.810498
4427.535935
4427.310492
4427.594859
4425.401127
4426.281415
4424.624223
4425.773366
4424.198899
4426.787323
4445.501071
4412.981740
4425.595662
4438.322377
4428.357814
4421.879355
4464.410605
4431.536990
4426.034801
4431.583854
4424.202029
4443.070224
4415.173258
4428.696342
4429.342738
4452.048812
4426.805720
4428.085186
4428.089372
4427.036459
4428.084229
4427.029030
4427.409437
4427.000901
4426.385824
4427.016495
4426.784617
4426.173133
4426.437034
4425.536585
4424.668342
4421.418215
4430.953784
4423.539934
4435.016335
4447.017772
4436.695003
4439.461580
4480.826781
4420.932909
4447.321342
4413.697068
4411.963892
4424.227883
4417.009774
4406.306438
4417.073918
4427.234872
4428.072597
4428.124971
4427.712690
4428.232169
4427.304987
4428.288247
4426.661429
4427.859336
4425.708722
4426.179910
4425.653308
4425.487948
4425.360667
4425.691655
4408.200184
4414.325225
4452.901932
4404.040978
4368.101248
4432.879077
4675.296881
4458.598120
4434.358427
4440.103552
4428.904779
4409.551007
4445.957978
4407.550842
4457.239403
4420.226497
4427.236540
4428.406940
4427.928449
4428.134534
4427.522497
4428.029642
4427.420273
4427.669224
4427.206532
4427.411217
4427.741435
4427.018612
4427.092236
4425.648450
4426.380795
4418.325224
4427.024140
4411.425713
4472.963374
4388.710191
4427.327180
4456.917498
4451.545935
4503.104294
4465.804323
4481.687373
4432.119604
4427.521676
4434.996244
4387.419911
4424.330808
4427.350195
4428.278638
4428.311036
4427.399647
4428.595672
4427.221785
4428.032515
4427.189896
4427.036950
4425.868106
4426.110329
4424.306244
4426.874924
4425.209468
4425.115752
4454.857200
4442.580564
4452.329665
4402.650375
4362.313558
4400.458799
4461.157375
4465.994747
4468.192331
4412.616959
4377.782637
4415.163123
4469.227384
4441.661962
4454.705872
4427.034756
4427.614252
4427.996238
4428.616196
4427.433062
4428.057116
4426.440645
4427.957295
4425.354224
4426.918924
4426.033284
4426.997053
4427.668018
4426.284215
4424.503429
4428.650095
4440.338297
4393.807210
4428.266836
4436.197778
4347.846383
4421.659986
4477.820434
4452.384673
4407.084165
4436.398002
4412.590617
4403.849200
4401.119396
4424.236219
4458.713479
4428.708106
4427.702314
4428.506397
4428.182706
4427.715773
4427.668639
4427.608073
4427.466713
4427.663317
4427.726845
4427.067901
4427.553596
4424.930381
4426.751781
4423.785712
4425.263168
4441.002571
4434.573797
4420.008417
4416.139264
4400.631685
4443.897676
4779.371495
4459.852158
4437.002365
4460.095181
4436.600252
4387.199429
4393.247867
4407.225681
4354.438137
4423.013718
4427.781605
4428.279217
4428.519075
4427.348700
4428.714118
4427.284846
4428.765266
4427.518951
4428.473588
4428.016992
4428.225628
4426.187884
4425.995025
4426.055884
4422.776849
4446.283314
4453.546166
4438.277170
4432.758702
4462.205294
4522.439089
4453.433702
4442.675072
4412.865310
4449.358527
4464.968803
4413.258546
4437.034418
4424.920021
4514.827072
4422.317367
4427.792635
4428.365708
4428.765846
4428.063289
4428.649885
4427.894058
4428.628317
4427.267193
4428.577740
4425.755315
4425.372130
4424.602209
4425.359316
4423.388482
4427.737185
4435.345819
4441.000277
4434.243867
4423.449566
4440.077303
4478.276110
4463.903471
4458.867628
4469.969176
4451.766156
4466.316923
4441.412646
4436.661307
4411.462561
4387.109271
4440.902250
4428.230048
4429.032029
4428.321460
4428.643745
4428.068197
4428.393747
4427.268164
4428.017135
4426.543851
4426.964608
4425.758111
4423.796805
4425.690848
4424.457643
4425.798649
4419.615309
4412.834838
4436.400386
4461.557837
4461.854007
4511.612002
4527.161160
4492.639274
4442.724864
4442.063208
4443.916712
4432.798372
4426.869134
4398.723069
4390.592301
4402.587993