# vtk DataFile Version 2.0
mfree iwf
ASCII

DATASET UNSTRUCTURED_GRID
POINTS 11907 float
-0.000000 0.000445 0.000000
-0.000000 0.000450 0.000000
-0.000000 0.000455 0.000000
-0.000000 0.000460 0.000000
-0.000000 0.000465 0.000000
-0.000000 0.000470 0.000000
-0.000000 0.000475 0.000000
-0.000000 0.000480 0.000000
-0.000000 0.000485 0.000000
0.000000 0.000490 0.000000
-0.000001 0.000496 0.000000
0.000002 0.000500 0.000000
0.001311 0.001067 0.000000
0.001320 0.001065 0.000000
0.001361 0.001042 0.000000
0.001366 0.001039 0.000000
0.001365 0.001039 0.000000
0.001372 0.001035 0.000000
0.001378 0.001031 0.000000
0.001374 0.001034 0.000000
0.001386 0.001026 0.000000
0.001408 0.001010 0.000000
0.001412 0.001005 0.000000
0.001415 0.001001 0.000000
0.001417 0.000997 0.000000
0.001420 0.000993 0.000000
0.001423 0.000989 0.000000
0.001425 0.000984 0.000000
0.001427 0.000981 0.000000
0.001431 0.000975 0.000000
0.001435 0.000971 0.000000
0.001452 0.000957 0.000000
0.000005 0.000445 0.000000
0.000005 0.000450 0.000000
0.000005 0.000455 0.000000
0.000005 0.000460 0.000000
0.000005 0.000465 0.000000
0.000005 0.000470 0.000000
0.000005 0.000475 0.000000
0.000005 0.000480 0.000000
0.000005 0.000485 0.000000
0.000006 0.000489 0.000000
0.000003 0.000496 0.000000
0.000006 0.000498 0.000000
0.001357 0.001044 0.000000
0.001359 0.001034 0.000000
0.001391 0.001020 0.000000
0.001396 0.001016 0.000000
0.001400 0.001013 0.000000
0.001403 0.001010 0.000000
0.001404 0.001008 0.000000
0.001406 0.001004 0.000000
0.001409 0.001001 0.000000
0.001412 0.000996 0.000000
0.001417 0.000989 0.000000
0.001420 0.000985 0.000000
0.001423 0.000979 0.000000
0.001429 0.000971 0.000000
0.001430 0.000968 0.000000
0.001435 0.000964 0.000000
0.001444 0.000958 0.000000
0.001446 0.000957 0.000000
0.001441 0.000961 0.000000
0.001449 0.000955 0.000000
0.000010 0.000445 0.000000
0.000010 0.000450 0.000000
0.000010 0.000455 0.000000
0.000010 0.000460 0.000000
0.000010 0.000465 0.000000
0.000010 0.000469 0.000000
0.000010 0.000475 0.000000
0.000010 0.000479 0.000000
0.000009 0.000486 0.000000
0.000012 0.000489 0.000000
0.000008 0.000497 0.000000
0.000011 0.000498 0.000000
0.001355 0.001041 0.000000
0.001362 0.001032 0.000000
0.001377 0.001026 0.000000
0.001384 0.001023 0.000000
0.001388 0.001020 0.000000
0.001392 0.001017 0.000000
0.001382 0.001017 0.000000
0.001389 0.001012 0.000000
0.001394 0.001009 0.000000
0.001399 0.001005 0.000000
0.001407 0.000997 0.000000
0.001411 0.000992 0.000000
0.001410 0.000986 0.000000
0.001413 0.000983 0.000000
0.001418 0.000981 0.000000
0.001426 0.000974 0.000000
0.001436 0.000961 0.000000
0.001438 0.000959 0.000000
0.001441 0.000953 0.000000
0.001442 0.000947 0.000000
0.000015 0.000445 0.000000
0.000016 0.000450 0.000000
0.000014 0.000456 0.000000
0.000017 0.000460 0.000000
0.000014 0.000469 0.000000
0.000016 0.000465 0.000000
0.000014 0.000476 0.000000
0.000017 0.000480 0.000000
0.000014 0.000484 0.000000
0.000016 0.000489 0.000000
0.000014 0.000495 0.000000
0.000016 0.000497 0.000000
0.000025 0.000500 0.000000
0.001365 0.001032 0.000000
0.001379 0.001024 0.000000
0.001373 0.001022 0.000000
0.001385 0.001014 0.000000
0.001396 0.001014 0.000000
0.001395 0.001005 0.000000
0.001402 0.001000 0.000000
0.001398 0.000998 0.000000
0.001403 0.000995 0.000000
0.001409 0.000980 0.000000
0.001414 0.000989 0.000000
0.001417 0.000974 0.000000
0.001421 0.000975 0.000000
0.001421 0.000969 0.000000
0.001425 0.000967 0.000000
0.001428 0.000961 0.000000
0.001432 0.000958 0.000000
0.001434 0.000954 0.000000
0.001440 0.000945 0.000000
0.000019 0.000445 0.000000
0.000021 0.000450 0.000000
0.000018 0.000455 0.000000
0.000022 0.000459 0.000000
0.000019 0.000469 0.000000
0.000024 0.000467 0.000000
0.000018 0.000475 0.000000
0.000022 0.000479 0.000000
0.000019 0.000486 0.000000
0.000021 0.000490 0.000000
0.000020 0.000497 0.000000
0.000022 0.000499 0.000000
0.000039 0.000500 0.000000
0.001359 0.001021 0.000000
0.001367 0.001025 0.000000
0.001374 0.001017 0.000000
0.001379 0.001020 0.000000
0.001388 0.001007 0.000000
0.001386 0.001003 0.000000
0.001397 0.000995 0.000000
0.001389 0.001001 0.000000
0.001400 0.000990 0.000000
0.001397 0.000981 0.000000
0.001402 0.000976 0.000000
0.001407 0.000974 0.000000
0.001415 0.000968 0.000000
0.001419 0.000959 0.000000
0.001426 0.000958 0.000000
0.001427 0.000954 0.000000
0.001434 0.000949 0.000000
0.001438 0.000950 0.000000
0.001436 0.000942 0.000000
0.000024 0.000445 0.000000
0.000026 0.000450 0.000000
0.000024 0.000455 0.000000
0.000026 0.000461 0.000000
0.000021 0.000464 0.000000
0.000026 0.000473 0.000000
0.000022 0.000476 0.000000
0.000027 0.000481 0.000000
0.000023 0.000485 0.000000
0.000026 0.000488 0.000000
0.000026 0.000492 0.000000
0.000027 0.000500 0.000000
0.001339 0.001055 0.000000
0.001367 0.001028 0.000000
0.001372 0.001027 0.000000
0.001383 0.001009 0.000000
0.001379 0.001012 0.000000
0.001394 0.001002 0.000000
0.001391 0.000995 0.000000
0.001381 0.001005 0.000000
0.001387 0.000992 0.000000
0.001406 0.000991 0.000000
0.001403 0.000984 0.000000
0.001404 0.000986 0.000000
0.001413 0.000978 0.000000
0.001413 0.000972 0.000000
0.001423 0.000962 0.000000
0.001418 0.000965 0.000000
0.001430 0.000951 0.000000
0.001422 0.000954 0.000000
0.001430 0.000946 0.000000
0.001431 0.000939 0.000000
0.000030 0.000445 0.000000
0.000031 0.000450 0.000000
0.000029 0.000455 0.000000
0.000031 0.000459 0.000000
0.000031 0.000465 0.000000
0.000028 0.000468 0.000000
0.000031 0.000472 0.000000
0.000030 0.000477 0.000000
0.000030 0.000486 0.000000
0.000031 0.000491 0.000000
0.000033 0.000497 0.000000
0.000030 0.000499 0.000000
0.000048 0.000500 0.000000
0.001357 0.001029 0.000000
0.001367 0.001015 0.000000
0.001374 0.001012 0.000000
0.001372 0.001012 0.000000
0.001377 0.001007 0.000000
0.001382 0.000995 0.000000
0.001394 0.000984 0.000000
0.001395 0.000991 0.000000
0.001396 0.000986 0.000000
0.001404 0.000979 0.000000
0.001405 0.000966 0.000000
0.001409 0.000970 0.000000
0.001410 0.000965 0.000000
0.001413 0.000956 0.000000
0.001415 0.000962 0.000000
0.001420 0.000949 0.000000
0.001425 0.000948 0.000000
0.001428 0.000943 0.000000
0.001428 0.000937 0.000000
0.000035 0.000445 0.000000
0.000035 0.000450 0.000000
0.000034 0.000457 0.000000
0.000038 0.000454 0.000000
0.000035 0.000467 0.000000
0.000036 0.000472 0.000000
0.000032 0.000479 0.000000
0.000041 0.000479 0.000000
0.000034 0.000483 0.000000
0.000034 0.000488 0.000000
0.000037 0.000491 0.000000
0.000036 0.000498 0.000000
0.001298 0.001069 0.000000
0.001334 0.001058 0.000000
0.001364 0.001020 0.000000
0.001367 0.001010 0.000000
0.001379 0.001000 0.000000
0.001368 0.001001 0.000000
0.001386 0.000997 0.000000
0.001383 0.000990 0.000000
0.001390 0.000988 0.000000
0.001381 0.000982 0.000000
0.001388 0.000973 0.000000
0.001399 0.000968 0.000000
0.001404 0.000970 0.000000
0.001407 0.000962 0.000000
0.001417 0.000953 0.000000
0.001407 0.000947 0.000000
0.001419 0.000942 0.000000
0.001421 0.000945 0.000000
0.001424 0.000940 0.000000
0.001424 0.000933 0.000000
0.000040 0.000445 0.000000
0.000041 0.000450 0.000000
0.000036 0.000461 0.000000
0.000040 0.000458 0.000000
0.000041 0.000463 0.000000
0.000039 0.000468 0.000000
0.000041 0.000473 0.000000
0.000037 0.000477 0.000000
0.000041 0.000488 0.000000
0.000042 0.000491 0.000000
0.000041 0.000497 0.000000
0.000044 0.000498 0.000000
0.001144 0.001047 0.000000
0.001355 0.001036 0.000000
0.001356 0.001025 0.000000
0.001361 0.001007 0.000000
0.001375 0.001003 0.000000
0.001373 0.000997 0.000000
0.001377 0.000996 0.000000
0.001387 0.000984 0.000000
0.001391 0.000977 0.000000
0.001397 0.000976 0.000000
0.001389 0.000981 0.000000
0.001389 0.000962 0.000000
0.001398 0.000959 0.000000
0.001403 0.000955 0.000000
0.001409 0.000959 0.000000
0.001408 0.000954 0.000000
0.001413 0.000950 0.000000
0.001415 0.000945 0.000000
0.001420 0.000937 0.000000
0.001420 0.000931 0.000000
0.000044 0.000445 0.000000
0.000046 0.000450 0.000000
0.000044 0.000455 0.000000
0.000046 0.000461 0.000000
0.000044 0.000467 0.000000
0.000046 0.000474 0.000000
0.000045 0.000478 0.000000
0.000039 0.000483 0.000000
0.000052 0.000485 0.000000
0.000045 0.000483 0.000000
0.000048 0.000493 0.000000
0.000050 0.000498 0.000000
0.001150 0.001051 0.000000
0.001353 0.001046 0.000000
0.001369 0.001019 0.000000
0.001370 0.001005 0.000000
0.001366 0.001003 0.000000
0.001378 0.000990 0.000000
0.001374 0.000987 0.000000
0.001382 0.000986 0.000000
0.001381 0.000976 0.000000
0.001392 0.000972 0.000000
0.001397 0.000972 0.000000
0.001402 0.000960 0.000000
0.001394 0.000964 0.000000
0.001401 0.000953 0.000000
0.001410 0.000950 0.000000
0.001410 0.000943 0.000000
0.001410 0.000940 0.000000
0.001414 0.000938 0.000000
0.001416 0.000934 0.000000
0.001416 0.000928 0.000000
0.000049 0.000445 0.000000
0.000053 0.000450 0.000000
0.000049 0.000454 0.000000
0.000052 0.000455 0.000000
0.000048 0.000465 0.000000
0.000049 0.000471 0.000000
0.000052 0.000468 0.000000
0.000051 0.000478 0.000000
0.000047 0.000488 0.000000
0.000052 0.000491 0.000000
0.000057 0.000492 0.000000
0.000053 0.000498 0.000000
0.001241 0.001073 0.000000
0.001343 0.001044 0.000000
0.001352 0.001033 0.000000
0.001362 0.001010 0.000000
0.001367 0.000996 0.000000
0.001373 0.000993 0.000000
0.001368 0.000991 0.000000
0.001372 0.000987 0.000000
0.001377 0.000976 0.000000
0.001385 0.000978 0.000000
0.001381 0.000972 0.000000
0.001390 0.000967 0.000000
0.001388 0.000956 0.000000
0.001398 0.000964 0.000000
0.001398 0.000949 0.000000
0.001398 0.000941 0.000000
0.001403 0.000947 0.000000
0.001407 0.000936 0.000000
0.001412 0.000931 0.000000
0.001412 0.000925 0.000000
0.000053 0.000445 0.000000
0.000058 0.000451 0.000000
0.000055 0.000462 0.000000
0.000050 0.000460 0.000000
0.000060 0.000466 0.000000
0.000053 0.000473 0.000000
0.000057 0.000476 0.000000
0.000057 0.000480 0.000000
0.000052 0.000483 0.000000
0.000057 0.000486 0.000000
0.000056 0.000497 0.000000
0.000059 0.000496 0.000000
0.001265 0.001072 0.000000
0.001352 0.001047 0.000000
[...]
POINT_DATA 11907
SCALARS density float 1
LOOKUP_TABLE default
4427.479383
4430.161164
4425.792247
4429.177464
4431.886787
4426.684043
4436.514465
4428.410913
4431.301297
4419.474913
4429.679602
4406.400887
4428.417272
4418.475340
4415.867868
4443.027559
4440.723655
4437.933247
4451.947033
4453.358234
4425.445832
4419.414566
4401.174386
4444.963921
4423.402819
4431.051678
4450.744777
4420.633098
4434.902904
4447.979198
4426.940439
4405.525982
4431.684586
4432.190301
4430.115180
4425.598927
4431.998105
4420.740943
4425.616548
4421.510909
4423.311650
4432.515840
4447.744545
4409.086307
4412.703987
4422.892545
4421.234338
4414.394071
4422.385075
4430.594028
4443.819470
4463.053603
4434.824455
4426.441493
4425.894928
4390.814630
4435.740869
4400.919501
4438.226002
4458.091871
4429.458498
4435.978089
4407.065065
4399.655632
4420.409051
4425.722981
4432.613649
4422.131498
4432.475362
4423.765821
4456.205813
4399.420988
4466.028796
4383.464112
4447.595433
4403.304699
4466.330215
4448.237554
4431.454442
4397.512745
4418.710067
4410.507025
4470.263228
4455.511315
4435.058539
4392.433815
4427.619912
4423.808405
4398.771376
4467.299413
4420.528182
4383.840526
4422.703130
4424.282321
4446.464483
4414.751452
4424.840822
4438.305686
4446.165668
4417.515367
4417.901615
4448.238981
4448.981919
4390.759350
4464.177932
4388.865879
4507.341585
4406.411350
4434.514113
4382.832629
4411.419657
4474.250798
4447.103709
4434.361263
4442.466757
4375.897658
4433.188992
4420.863502
4394.194253
4435.250991
4415.766232
4465.780735
4434.014752
4475.841124
4430.956857
4369.856870
4489.571250
4438.765498
4436.307774
4421.967421
4439.231301
4433.425719
4407.371321
4432.188725
4435.599446
4435.678280
4478.764629
4372.874681
4460.716362
4432.995150
4416.949968
4440.821146
4474.243728
4380.046568
4466.215910
4396.167721
4442.234726
4443.672967
4438.251252
4383.513210
4398.958387
4444.448837
4424.895649
4417.127272
4440.125143
4475.835650
4441.654225
4413.610112
4392.587063
4420.836947
4433.154513
4432.506731
4442.553112
4412.851659
4440.126739
4420.352684
4452.933729
4382.965844
4417.812303
4462.275605
4427.098444
4423.113037
4434.635065
4434.611219
4367.030680
4436.430201
4394.568667
4450.535578
4382.531259
4461.851049
4472.031436
4461.209951
4444.274973
4455.214003
4443.791223
4449.247274
4368.631689
4434.791391
4419.689538
4393.425279
4464.354839
4424.992871
4424.242299
4431.249705
4414.807295
4439.547417
4434.951010
4449.294806
4399.619639
4450.535251
4446.266695
4406.569723
4450.804665
4418.250583
4417.462738
4447.320650
4468.815111
4471.739659
4426.790993
4432.884902
4411.434821
4435.817606
4454.691366
4448.280009
4446.059994
4433.049270
4462.320487
4379.985324
4397.039084
4453.233322
4455.250713
4408.844647
4415.459917
4446.093218
4424.916902
4435.175639
4442.761140
4430.266117
4424.435289
4437.843502
4439.443995
4430.065771
4404.699984
4428.519684
4422.781530
4443.893084
4417.996569
4426.684172
4383.169138
4389.881067
4428.894787
4486.942958
4443.286909
4448.248390
4401.648791
4455.367485
4429.070595
4448.702015
4385.931490
4461.899456
4437.641162
4409.449486
4465.187864
4421.321015
4408.099936
4412.353697
4430.865552
4423.197702
4415.718980
4433.606317
4430.281756
4439.884718
4427.276824
4428.222659
4446.061336
4428.070377
4436.040582
4422.736211
4435.108405
4452.926572
4399.543836
4444.737708
4401.055367
4447.477715
4459.872391
4431.859088
4440.777800
4425.501038
4442.010379
4432.101411
4405.172869
4437.196971
4431.932037
4419.227389
4462.337179
4358.048746
4441.864623
4431.291250
4432.841144
4415.012211
4422.795657
4450.752006
4417.634848
4439.869057
4434.892655
4430.689656
4456.022481
4422.053112
4469.125848
4432.478733
4434.218591
4436.636507
4396.346162
4433.582890
4429.293486
4396.954841
4464.060998
4442.063438
4457.699701
4437.341302
4420.550507
4425.357196
4428.977383
4444.949443
4434.263349
4463.927619
4436.068228
4425.721948
4415.252152
4451.186925
4426.388974
4414.861967
4459.207796
4410.364135
4432.753226
4454.527279
4395.659353
4384.982825
4394.125756
4426.186199
4516.606053
4412.333080
4442.199783
4431.937049
4401.586623
4455.949856
4358.570508
4419.261919
4417.847695
4435.463753
4414.634176
4389.689892
4419.492434
4411.383575
4397.702138
4432.484995
4413.556436
4432.634664
4419.723928
4427.547562
4409.108093
4420.736473
4439.316877
4426.047268
4485.009161
4403.422031
4406.307306
4444.229342
4428.003325
4421.512956
4468.746345
4351.035113
4416.634243
4404.832811
4437.733106
4428.568805
4439.906464
4416.342601
4414.886458
4481.323716
4372.454120
4415.391255
4444.150162
4419.422773
4430.233227
4442.742765
4458.558292
4432.259614
4477.966710
4396.688627
4440.656185
4440.454683
4442.456368
4417.921100
4419.011446
4405.857572
4457.804892
4416.165767
4372.424573
4447.963331
4430.831324
4384.677244
4441.085863
4419.786838
4445.153822
4435.907542
4423.885275
4428.235397
4418.199964
4378.501962
4401.662038
4457.481981
4442.692134
4479.810350
4433.283113
4430.169133
4428.557472
4439.058330
4438.607576
4446.989289
4448.200793
4401.324063
4435.193557
4399.492959
4443.122240
4437.933944
4445.209763
4435.261777
4442.409325
4441.641294
4450.392113
4425.420313
4397.584478
4465.825736
4478.974264
4411.482319
4422.661035
4440.356945
4421.535757
4430.014242
4391.767391
4375.043669
4447.461305
4388.982468
4435.373311
4390.558114
4447.933322
4437.170573
4470.505090
4415.671779
4445.214763
4448.003983
4416.913926
4405.689975
4446.945610
4447.470592
4414.340518
4420.241985
4417.065623
4441.106280
4439.930001
4461.351983
4396.230908
4396.112684
4395.514613
4434.112052
4384.081878
4444.683012
4436.929397
4455.102246
4429.475969
4439.903076
4423.729345
4464.054863
4430.372377
4407.794422
4433.425274
4455.436814
4392.554999
4429.210380
4429.803253
4422.244282
4458.574912
4423.818449
4442.315528
4428.392758
4428.010382
4412.484724
4442.335188
4434.560607
4431.273652
4437.145607
4405.529123
4451.667130
4410.316377
4459.232887
4452.005464
4445.410353
4446.943759
4380.941964
4394.182427
4452.836014
4427.466607
4429.934836
4432.539608
4442.808168
4446.907933
4448.324587
4420.229172
4455.418393
4391.277785
4412.446465
4419.598549
4417.535727
4394.587776
4431.514748
4416.321059
4429.351626
4449.657458
4393.454942
4443.322224
4421.658162
4430.078030
4434.652505
4435.997393
4406.729699
4456.391911
4380.578081
4443.224262
4446.230564
4420.131494
4376.510262
4416.459183
4426.024148
4423.046420
4423.980752
4434.781563
4440.337570
4466.037775
4402.209927
4417.287506
4409.964443
4425.230377
4450.396125
4400.326555
4481.072853
4415.929669
4420.772010
4448.131113
4396.544949
4436.105140
4446.712882
4425.586518
4440.478344
4437.850893
4424.512833
4441.080998
4425.199476
4462.071666
4389.596715
4434.296702
4443.219430
4377.918400
4506.126091
4435.919542
4454.907489
4428.818886
4428.490133
4444.675337
4437.936190
4476.498109
4418.168617
4481.266094
4485.329981
4441.577489
4447.666957
4417.128802
4414.543317
4439.796984
4393.669255
4412.345362
4447.357121
4436.354335
4427.227614
4432.418060
4424.468335
4405.457009
4422.070906
4442.284682
4427.387008
4456.956723
4466.052567
4461.231714
4457.333051
4444.034294
4438.166935
4402.985725
4425.907847
4419.719590
4423.542530
4428.331066
4450.818504
4420.650587
4440.539751
4432.826293
4445.877269
4420.166351
4451.977720
4450.084550
4382.588594
4444.684290
4441.391137
4440.290346
4430.658269
4427.177410
4410.891453
4431.100407
4428.836979
4457.360695
4407.705546
4422.651907
4427.927254
4412.487876
4392.409844
4434.654766
4436.103128
4445.836621
4424.444002
4424.871764
4435.007602
4418.724769
4441.913560
4444.227362
4479.256766
4436.432489
4468.418677
4437.240428
4407.173947
4479.893111
4431.520745
4391.679317
4414.722490
4399.104484
4409.646746
4436.748347
4421.716264
4430.246313
4441.863449
4444.097423
4436.804973
4432.815376
4439.873169
4439.107397
4421.964254
4431.015850
4438.580219
4386.928643
4400.520126
4463.956544
4461.065564
4402.139662
4490.453686
4426.089749
4420.112444
4410.892143
4471.516826
4438.846034
4426.203792
4360.056882
4437.776025
4398.764857
4437.332192
4473.315851
4425.304258
4470.389444
4458.724424
4446.067115
4417.141172
4445.175134
4406.356118
4418.425695
4434.264194
4444.873188
4426.870761
4451.599519
4412.353982
4431.880461
4402.119338
4440.686531
4424.128095
4440.100621
4376.709302
4431.595958
4433.314613
4432.582139
4417.322023
4435.965026
4436.807618
4448.523639
4424.379066
4448.576240
4429.671130
4430.189956
4355.403114
4467.896215
4443.562589
4434.403077
4425.901165
4407.839144
4449.832734
4396.449802
4443.350009
4433.512225
4438.246258
4409.760092
4436.397903
4410.081653
4423.037447
4458.285567
4422.219140
4442.231077
4454.828698
4440.286279
4422.381264
4410.512838
4451.527036
4431.780231
4469.950898
4392.536443
4447.930768
4433.933028
4440.818918
4428.874615
4442.018121
4442.862364
4404.368047
4350.602572
4487.806432
4429.858449
4415.274837
4395.212847
4426.867406
4435.620331
4441.846879
4413.667564
4423.642693
4437.055408
4421.542375
4437.599573
4420.201030
4411.987405
4420.764505
4402.172044
4401.468315
4413.347477
4440.481146
4429.240823
4425.230897
4450.478403
4431.514647
4433.879226
4403.645915
4360.066004
4391.786451
4423.531417
4381.917714
4373.187997
4451.265783
4440.302007
4379.954815
4441.399961
4428.145739
4422.472680
4426.469315
4419.592813
4450.295287
4440.823914
4424.100035
4429.045900
4430.599415
4430.898800
4431.087371
4430.944467
4430.417721
4429.999305
4429.564545
4429.684494
4430.355087
4431.540811
4432.029166
4431.688875
4431.272208
4430.681822
4429.774501
4430.342477
4429.273398
4429.012432
4429.669596
4430.820978
4432.331146
4433.393235
4433.734272
4432.311021
4429.758699
4428.380202
4429.000475
4430.408361
4430.841620
4429.938246
4430.329244
4431.540817
4432.154082
4431.763523
4430.391405
4428.971776
4427.547613
4427.404480
4428.705217
4432.028148
4433.549835
4432.136625
4430.544342
4428.874693
4430.443144
4430.104602
4428.908543
4428.404323
4428.813666
4430.400268
4431.826686
4433.704665
4433.669729
4432.482558
4428.913366
4426.831469
4427.213607
4428.834902
4429.019145
4430.226174
4429.960243
4431.520729
4432.075041
4431.654973
4430.144020
4428.622204
4426.693681
4426.688213
4427.870197
4431.277444
4433.291021
4432.328052
4429.579176
4429.946161
4430.197119
4429.743313
4429.049927
4427.514649
4429.051428
4429.442497
4432.003858
4432.689471
4434.079444
4431.028428
4429.593529
4425.452082
4428.116846
4428.433531
4429.494872
4429.964400
4429.744493
4431.415007
4431.814658
4431.506966
4429.725423
4428.373808
4426.228711
4426.279900
4427.596562
4430.519647
4432.977475
4431.811316
4428.883675
4428.792569
4429.890301
4429.763106
4428.628817
4427.677545
4428.250224
4429.777544
4431.046919
4433.018314
4433.055785
4431.358578
4428.622337
4425.489801
4426.665416
4427.901039
4429.006535
4429.273447
4429.928645
4430.818215
4431.809147
4431.242221
4429.479167
4428.085968
4425.913209
4426.074899
4427.074459
4430.343293
4432.622040
4431.804946
4429.531393
4429.632962
4429.634928
4429.579115
4428.467549
4427.410160
4428.095994
4429.408643
4430.950133
4432.520239
4432.821846
4430.954797
4428.387479
4425.255068
4426.972807
4427.662261
4429.906750
4429.192109
4429.652388
4430.871580
4431.543364
4430.926324
4429.466752
4427.447653
4426.026278
4425.812874
4426.721299
4429.974979
4432.232536
4430.979054
4427.735061
4424.081833
4429.407998
4429.570925
4428.150768
4427.218996
4427.880363
4429.007544
4430.909775
4432.188811
4432.544595
4430.887736
4427.902021
4425.217155
4425.628299
4427.227363
4428.949653
4429.014271
4429.466694
4430.713726
4431.386311
4430.627043
4429.344086
4427.242061
4425.818126
4425.847192
4426.521007
4429.667491
4432.617312
4431.564921
4428.870725
4428.458890
4467.120439
4437.827607
4424.543678
4435.351981
4446.160520
4461.777030
4430.269967
4414.134393
4406.555233
4455.378606
4473.453961
4395.538761
4464.651937
4486.220621
4427.614753
4414.827596
4429.127351
4429.375109
4428.168292
4426.703098
4427.909963
4428.677155
4430.721012
4432.096507
4432.104241
4430.609199
4428.558910
4424.621617
4427.745947
4429.337895
4431.750817
4418.842779
4429.593385
4434.893063
4418.411038
4416.299205
4442.401546
4435.561897
4441.909009
4397.886610
4390.523972
4437.377620
4411.110440
4436.441771
4360.295221
4470.723360
4408.129926
4428.576180
4429.303852
4430.494671
4431.101987
4430.664921
4428.803356
4427.599460
4425.127211
4426.398188
4426.150105
4429.277465
4433.037980
4430.788839
4428.669474
4428.539515
4456.265079
4436.347346
4407.016119
4439.273188
4398.297991
4444.430980
4410.648931
4440.760161
4419.459814
4437.607397
4457.409442
4424.944494
4417.970497
4459.404288
4420.304725
4414.500065
4428.905447
4429.364150
4427.930539
4426.662342
4427.534341
4429.004859
4430.058892
4432.430835
4430.970553
4430.974271
4428.222589
4424.183156
4427.253326
4426.673889
4428.778486
4432.377136
4420.028756
4436.803143
4411.210739
4406.417931
4443.510658
4436.323891
4414.096173
4414.026116
4417.895776
4440.284852
4444.558780
4405.493357
4411.486320
4440.257797
4451.177345
4428.497329
4429.478596
4430.052216
4431.265851
4430.355019
4428.986147
4427.277454
4425.272924
4426.210183
4425.805830
4428.986963
4432.943261
4429.799963
4427.973608
4427.263842
4441.771017
4457.927059
4427.028041
4459.023918
4427.142714
4438.355577
4438.307319
4471.801299
4429.934547
4451.985940
4394.451369
4429.394513
4465.801328
4417.955956
4435.629935
4419.071925
4428.547339
4429.374503
4427.708989
4426.826027
4427.197119
4429.240353
4429.913651
4432.288101
4430.740006
4430.734026
4428.109060
4424.193112
4427.203383
4427.203799
4425.648095
4429.331152
4443.233253
4441.452616
4402.160145
4480.492908
4400.033816
4422.357913
4454.375086
4468.309796
4387.343998
4419.775778
4456.660258
4426.716457
4420.734401
4453.294782
4421.670904
4428.589262
4429.635608
4429.770385
4431.363631
4430.095324
4429.237242
4426.755740
4426.008761
4425.780957
4426.270063
4428.311768
4433.499389
4428.686346
4429.212034
4428.821160
4429.962721
4400.206132
4440.681674
4423.195413
4337.398576
4436.667035
4425.193493
4424.884793
4420.880398
4444.065517
4426.455025
4436.528084
4434.759090
4410.709876
4467.576110
4419.380160
4428.417859
4429.360336
4427.515773
4426.861023
4426.929363
4429.125630
4429.788507
4432.244896
4430.556317
4430.913223
4428.103297
4424.773052
4427.527154
4427.957316
4426.328044
4431.449131
4408.761238
4374.526778
4384.044356
4395.715248
4480.468615
4436.253056
4423.538908
4421.291958
4449.574913
4433.940673
4388.056157
4428.613267
4377.110695
4462.915014
4414.129077
4428.490354
4429.321537
4429.936074
4430.862936
4430.395248
4428.612447
4427.179954
4425.741068
4426.811293
4425.667327
4428.985828
4433.220094
4430.240739
4429.463245
4429.438148
4431.233560
4452.871121
4394.988438
4418.273668
4443.897538
4435.078921
4432.625799
4425.861231
4488.168729
4461.142062
4374.492662
4382.025243
4445.696065
4398.677757
4439.659796
4409.290565
4428.456435
4428.959894
4427.859880
4426.379039
4427.311259
4428.517448
4430.074200
4431.768485
4430.819761
4430.572822
4428.444745
4424.928149
4428.185725
4427.340308
4429.200853
4443.511378
4430.172597
4428.260560
4442.704428
4379.858539
4417.123773
4429.801114
4440.439360
4382.775601
4445.915066
4452.703482
4503.396224
4419.173938
4401.342230
4426.514503
4441.892536
4428.385536
4429.246409
4429.770691
4430.767662
4430.367850
4428.446649
4427.146976
4426.117438
4426.993418
4425.524336
4428.573259
4433.051733
4430.274149
4429.326415
4428.053569
4420.919305
4445.132613
4406.308050
4442.348780
4452.882552
4434.572202
4452.675850
4474.932135
4415.049429
4442.098652
4421.560901
4428.847843
4467.014638
4401.537824
4463.609922
4407.921471
4428.345044
4429.179988
4427.482964
4426.918493
4426.632282
4429.099404
4429.356638
4431.904194
4430.462623
4430.450890
4427.769947
4424.846662
4426.082561
4426.622378
4424.942367
4429.381594
4479.434458
4450.839185
4371.048213
4454.941859
4430.388680
4446.435446
4415.447549
4466.145691
4448.487556
4412.779201
4414.075577
4446.037604
4417.292549
4411.100811
4419.829086
4428.258892
4429.543094
4429.240538
4431.078270
4430.291111
4428.452213
4427.035310
4426.719899
4426.542368
4425.718749
4427.605212
4432.610117
4428.623333
4427.640570
4425.469271
4429.058373
4412.660757
4431.369428
4453.845467
4414.578723
4445.189871
4448.155325
4432.501437
4437.969951
4440.830111
4435.140244
4412.001439
4407.903474
4373.763714
4467.258633
4444.186420
4428.167195
4429.312265
4427.383087
4427.121722
4426.422219
4429.400674
4429.077322
4431.889175
4430.079453
4430.301520
4427.351882
4424.888960
4425.592203
4425.863630
4426.634341
4406.615765
4446.255128
4400.459277
4437.430300
4449.097008
4429.955311
4429.996449
4424.886874
4408.486621
4445.184898
4436.523732
4417.093309
4392.928354
4426.413804
4390.070656
4447.435194
4428.126108
4429.638737
4429.042497
4431.332478
4429.964450
4428.522318
4426.811573
4427.235791
4426.482562
4425.938935
4427.389326
4432.194287
4428.858999
4427.395145
4425.244731
4435.069378
4420.514721
4410.609987
4441.470578
4385.618576
4407.774445
4424.097271
4447.059513
4442.284823
4424.029506
4424.016308
4404.548136
4442.871736
4471.137821
4415.626686
4401.652851
4428.369061
4429.192831
4427.640665
4426.812365
4426.860462
4428.697833
4429.329405
4432.041012
4429.934971
4430.346086
4427.622761
4425.346201
4425.648832
4425.908220
4424.963572
4418.569826
4407.921401
4435.102234
4408.626044
4414.402965
4441.498033
4421.424165
4429.822873
4420.084767
4449.139133
4499.197389
4402.844218
4453.460165
4424.565169
4446.610798
4427.470636
4428.322011
4429.339268
4429.429314
4431.011493
4429.918493
4428.428312
4427.122498
4427.033422
4427.570761
4425.787767
4427.159695
4432.608092
4429.553610
4427.765234
4426.668748
4437.472145
4421.936988
4441.827091
4441.512337
4392.184392
4431.889208
4449.989794
4433.505452
4455.368881
4407.909744
4474.095348
4444.599718
4414.130019
4436.715674
4395.404794
4426.004534
4428.683617
4429.270513
4427.677908
4426.937589
4426.762447
4428.553836
4429.379151
4431.946527
4430.219529
4429.916436
4428.342879
4425.012759
4426.567611
4425.604008
4426.340109
4446.844237
4454.434251
4431.131711
4451.156504
4382.391447
4417.904871
4442.247024
4385.410610
4464.818811
4442.250956
4446.514539
4467.605483
4437.398070
4428.176111
4410.955489
4413.709416
4428.450414
4429.063762
4429.599633
4430.522326
4430.669520
4427.578641
4427.936749
4426.861809
4428.189670
4425.256180
4427.414195
4433.068355
4428.535423
4427.054102
4426.640270
4444.747178
4445.282137
4395.075639
4464.813581
4389.265916
4436.379274
4437.349181
4428.517025
4465.285973
4449.113414
4473.103600
4406.643243
4405.149936
4458.944853
4366.076197
4429.144848
4428.550468
4429.626952
4427.537443
4427.405622
4426.203641
4429.695090
4428.813076
4431.918825
4430.889303
4430.219642
4427.595943
4425.791351
4425.417796
4424.846862
4424.872990
4424.389011
4431.161562
4418.315127
4387.598448
4433.320610
4442.717311
4445.710619
4414.094946
4385.459610
4446.014903
4402.976524
4430.198491
4445.031910
4398.226972
4396.204093
4443.849505
4428.424655
4429.635123
4428.546122
4431.752064
4430.198847
4428.623621
4427.581417
4428.895566
4426.887046
4425.671429
4428.302941
4431.685501
4428.256154
4427.762476
4425.867175
4418.708815
4400.866617
4418.705624
4427.306104
4459.220713
4415.806786
4433.992435
4498.809428
4417.739007
4399.467554
4431.573012
4404.644789
4483.163727
4425.249303
4556.759006
4413.962665
4428.540450
4429.456182
4428.182073
4427.084399
4426.966055
4429.243513
4428.716175
4432.276941
4430.738387
4429.812322
4427.333680
4427.281310
4425.967843
4426.239858
4422.868945
4444.427151
4425.641954
4443.726906
4430.371372
4464.136229
4461.564945
4442.134102
4447.542181
4473.449462
4437.149999
4442.122339
4439.867049
4456.317683
4438.307231
4281.192021
4427.725262
4428.820240
4429.806552
4428.616215
4431.718185
4429.786222
4428.534754
4426.987815
4429.198783
4426.308710
4426.909364
4428.244518
4431.002910
4427.456278
4427.816954
4424.776511
4422.899429
4375.666580
4378.267157
4405.028065
4445.086149
4413.051006
4436.348471
4442.177959
4439.183898
4433.608996
4398.784814
4440.629330
4444.337914
4425.052830
4387.404355
4405.882171