# vtk DataFile Version 2.0
mfree iwf
ASCII

DATASET UNSTRUCTURED_GRID
POINTS 11346 float
0.000000 0.000445 0.000000
0.000000 0.000450 0.000000
0.000000 0.000455 0.000000
0.000000 0.000460 0.000000
0.000000 0.000465 0.000000
0.000000 0.000470 0.000000
0.000000 0.000475 0.000000
0.000000 0.000480 0.000000
0.000000 0.000485 0.000000
0.000000 0.000490 0.000000
-0.000000 0.000496 0.000000
0.000002 0.000500 0.000000
0.001001 0.000968 0.000000
0.001010 0.000968 0.000000
0.001056 0.000955 0.000000
0.001060 0.000953 0.000000
0.001060 0.000953 0.000000
0.001067 0.000951 0.000000
0.001074 0.000948 0.000000
0.001070 0.000950 0.000000
0.001083 0.000945 0.000000
0.001108 0.000934 0.000000
0.001114 0.000930 0.000000
0.001117 0.000927 0.000000
0.001120 0.000924 0.000000
0.001124 0.000920 0.000000
0.001128 0.000917 0.000000
0.001131 0.000913 0.000000
0.001134 0.000910 0.000000
0.001139 0.000906 0.000000
0.001143 0.000902 0.000000
0.001163 0.000890 0.000000
0.000005 0.000445 0.000000
0.000005 0.000450 0.000000
0.000005 0.000455 0.000000
0.000005 0.000460 0.000000
0.000005 0.000465 0.000000
0.000005 0.000470 0.000000
0.000005 0.000475 0.000000
0.000005 0.000480 0.000000
0.000005 0.000485 0.000000
0.000006 0.000490 0.000000
0.000003 0.000496 0.000000
0.000006 0.000499 0.000000
0.001051 0.000956 0.000000
0.001055 0.000947 0.000000
0.001089 0.000940 0.000000
0.001095 0.000938 0.000000
0.001100 0.000935 0.000000
0.001103 0.000934 0.000000
0.001105 0.000932 0.000000
0.001108 0.000928 0.000000
0.001111 0.000925 0.000000
0.001116 0.000921 0.000000
0.001122 0.000916 0.000000
0.001126 0.000912 0.000000
0.001129 0.000907 0.000000
0.001137 0.000901 0.000000
0.001140 0.000898 0.000000
0.001144 0.000894 0.000000
0.001155 0.000891 0.000000
0.001157 0.000890 0.000000
0.001152 0.000893 0.000000
0.001161 0.000888 0.000000
0.000010 0.000445 0.000000
0.000011 0.000450 0.000000
0.000010 0.000456 0.000000
0.000011 0.000460 0.000000
0.000010 0.000465 0.000000
0.000010 0.000469 0.000000
0.000009 0.000475 0.000000
0.000011 0.000480 0.000000
0.000009 0.000486 0.000000
0.000012 0.000489 0.000000
0.000009 0.000497 0.000000
0.000011 0.000498 0.000000
0.001050 0.000952 0.000000
0.001059 0.000945 0.000000
0.001075 0.000943 0.000000
0.001082 0.000941 0.000000
0.001086 0.000940 0.000000
0.001092 0.000938 0.000000
0.001082 0.000935 0.000000
0.001091 0.000931 0.000000
0.001096 0.000930 0.000000
0.001102 0.000927 0.000000
0.001111 0.000921 0.000000
0.001115 0.000917 0.000000
0.001115 0.000912 0.000000
0.001120 0.000908 0.000000
0.001125 0.000908 0.000000
0.001134 0.000902 0.000000
0.001147 0.000893 0.000000
0.001149 0.000891 0.000000
0.001154 0.000885 0.000000
0.001156 0.000880 0.000000
0.000014 0.000445 0.000000
0.000016 0.000450 0.000000
0.000014 0.000455 0.000000
0.000018 0.000460 0.000000
0.000015 0.000470 0.000000
0.000015 0.000464 0.000000
0.000014 0.000476 0.000000
0.000017 0.000480 0.000000
0.000014 0.000485 0.000000
0.000016 0.000489 0.000000
0.000014 0.000495 0.000000
0.000016 0.000498 0.000000
0.000025 0.000500 0.000000
0.001062 0.000946 0.000000
0.001077 0.000941 0.000000
0.001073 0.000938 0.000000
0.001086 0.000933 0.000000
0.001096 0.000935 0.000000
0.001098 0.000925 0.000000
0.001105 0.000922 0.000000
0.001100 0.000919 0.000000
0.001107 0.000918 0.000000
0.001116 0.000904 0.000000
0.001120 0.000913 0.000000
0.001125 0.000901 0.000000
0.001130 0.000902 0.000000
0.001130 0.000897 0.000000
0.001135 0.000896 0.000000
0.001139 0.000891 0.000000
0.001143 0.000889 0.000000
0.001147 0.000885 0.000000
0.001154 0.000877 0.000000
0.000019 0.000445 0.000000
0.000021 0.000450 0.000000
0.000018 0.000455 0.000000
0.000022 0.000458 0.000000
0.000017 0.000467 0.000000
0.000025 0.000467 0.000000
0.000018 0.000475 0.000000
0.000022 0.000478 0.000000
0.000019 0.000486 0.000000
0.000021 0.000491 0.000000
0.000021 0.000497 0.000000
0.000022 0.000499 0.000000
0.000039 0.000500 0.000000
0.001059 0.000934 0.000000
0.001065 0.000939 0.000000
0.001073 0.000932 0.000000
0.001079 0.000938 0.000000
0.001089 0.000927 0.000000
0.001088 0.000923 0.000000
0.001102 0.000917 0.000000
0.001092 0.000921 0.000000
0.001105 0.000912 0.000000
0.001106 0.000903 0.000000
0.001111 0.000899 0.000000
0.001116 0.000899 0.000000
0.001125 0.000895 0.000000
0.001131 0.000887 0.000000
0.001136 0.000887 0.000000
0.001140 0.000884 0.000000
0.001148 0.000879 0.000000
0.001151 0.000882 0.000000
0.001151 0.000874 0.000000
0.000024 0.000445 0.000000
0.000026 0.000450 0.000000
0.000025 0.000455 0.000000
0.000025 0.000461 0.000000
0.000021 0.000466 0.000000
0.000025 0.000473 0.000000
0.000023 0.000476 0.000000
0.000027 0.000481 0.000000
0.000023 0.000485 0.000000
0.000026 0.000488 0.000000
0.000026 0.000493 0.000000
0.000027 0.000500 0.000000
0.001031 0.000963 0.000000
0.001065 0.000943 0.000000
0.001070 0.000942 0.000000
0.001084 0.000929 0.000000
0.001077 0.000927 0.000000
0.001096 0.000924 0.000000
0.001095 0.000916 0.000000
0.001085 0.000922 0.000000
0.001093 0.000912 0.000000
0.001110 0.000914 0.000000
0.001108 0.000908 0.000000
0.001112 0.000909 0.000000
0.001121 0.000904 0.000000
0.001122 0.000898 0.000000
0.001134 0.000891 0.000000
0.001129 0.000891 0.000000
0.001143 0.000881 0.000000
0.001135 0.000882 0.000000
0.001144 0.000876 0.000000
0.001147 0.000870 0.000000
0.000030 0.000445 0.000000
0.000030 0.000450 0.000000
0.000029 0.000456 0.000000
0.000030 0.000460 0.000000
0.000032 0.000464 0.000000
0.000027 0.000468 0.000000
0.000032 0.000472 0.000000
0.000031 0.000477 0.000000
0.000030 0.000486 0.000000
0.000031 0.000492 0.000000
0.000033 0.000497 0.000000
0.000030 0.000499 0.000000
0.000049 0.000500 0.000000
0.001054 0.000941 0.000000
0.001068 0.000930 0.000000
0.001078 0.000931 0.000000
0.001074 0.000928 0.000000
0.001081 0.000925 0.000000
0.001087 0.000914 0.000000
0.001100 0.000905 0.000000
0.001099 0.000912 0.000000
0.001103 0.000908 0.000000
0.001112 0.000903 0.000000
0.001116 0.000890 0.000000
0.001118 0.000895 0.000000
0.001122 0.000891 0.000000
0.001126 0.000883 0.000000
0.001126 0.000888 0.000000
0.001133 0.000877 0.000000
0.001139 0.000878 0.000000
0.001143 0.000873 0.000000
0.001145 0.000867 0.000000
0.000035 0.000445 0.000000
0.000035 0.000450 0.000000
0.000034 0.000456 0.000000
0.000038 0.000454 0.000000
0.000035 0.000468 0.000000
0.000037 0.000472 0.000000
0.000031 0.000479 0.000000
0.000041 0.000478 0.000000
0.000035 0.000483 0.000000
0.000034 0.000488 0.000000
0.000037 0.000491 0.000000
0.000036 0.000498 0.000000
0.000988 0.000967 0.000000
0.001026 0.000964 0.000000
0.001063 0.000934 0.000000
0.001069 0.000925 0.000000
0.001082 0.000918 0.000000
0.001074 0.000916 0.000000
0.001090 0.000917 0.000000
0.001088 0.000909 0.000000
0.001096 0.000909 0.000000
0.001089 0.000901 0.000000
0.001097 0.000894 0.000000
0.001110 0.000891 0.000000
0.001112 0.000894 0.000000
0.001117 0.000887 0.000000
0.001130 0.000881 0.000000
0.001122 0.000870 0.000000
0.001134 0.000873 0.000000
0.001136 0.000872 0.000000
0.001140 0.000868 0.000000
0.001141 0.000863 0.000000
0.000040 0.000445 0.000000
0.000041 0.000450 0.000000
0.000036 0.000461 0.000000
0.000040 0.000459 0.000000
0.000042 0.000464 0.000000
0.000039 0.000467 0.000000
0.000042 0.000472 0.000000
0.000037 0.000478 0.000000
0.000041 0.000487 0.000000
0.000042 0.000491 0.000000
0.000041 0.000497 0.000000
0.000044 0.000498 0.000000
0.000843 0.000910 0.000000
0.001051 0.000948 0.000000
0.001055 0.000937 0.000000
0.001064 0.000921 0.000000
0.001078 0.000920 0.000000
0.001083 0.000912 0.000000
0.001078 0.000915 0.000000
0.001094 0.000905 0.000000
0.001101 0.000898 0.000000
0.001104 0.000899 0.000000
0.001097 0.000901 0.000000
0.001103 0.000887 0.000000
0.001111 0.000885 0.000000
0.001117 0.000880 0.000000
0.001121 0.000885 0.000000
0.001122 0.000880 0.000000
0.001127 0.000876 0.000000
0.001130 0.000869 0.000000
0.001136 0.000865 0.000000
0.001138 0.000859 0.000000
0.000044 0.000445 0.000000
0.000046 0.000450 0.000000
0.000044 0.000454 0.000000
0.000045 0.000460 0.000000
0.000044 0.000468 0.000000
0.000046 0.000474 0.000000
0.000046 0.000479 0.000000
0.000040 0.000483 0.000000
0.000052 0.000485 0.000000
0.000045 0.000484 0.000000
0.000048 0.000493 0.000000
0.000050 0.000498 0.000000
0.000848 0.000915 0.000000
0.001046 0.000957 0.000000
0.001069 0.000935 0.000000
0.001072 0.000921 0.000000
0.001070 0.000918 0.000000
0.001082 0.000908 0.000000
0.001083 0.000904 0.000000
0.001089 0.000904 0.000000
0.001091 0.000894 0.000000
0.001102 0.000892 0.000000
0.001107 0.000896 0.000000
0.001113 0.000881 0.000000
0.001106 0.000882 0.000000
0.001114 0.000876 0.000000
0.001122 0.000875 0.000000
0.001126 0.000872 0.000000
0.001125 0.000867 0.000000
0.001130 0.000865 0.000000
0.001133 0.000862 0.000000
0.001134 0.000856 0.000000
0.000049 0.000445 0.000000
0.000052 0.000450 0.000000
0.000049 0.000455 0.000000
0.000054 0.000454 0.000000
0.000048 0.000464 0.000000
0.000049 0.000471 0.000000
0.000052 0.000467 0.000000
0.000051 0.000477 0.000000
0.000047 0.000488 0.000000
0.000052 0.000491 0.000000
0.000057 0.000492 0.000000
0.000053 0.000498 0.000000
0.000932 0.000958 0.000000
0.001038 0.000953 0.000000
0.001049 0.000944 0.000000
0.001064 0.000924 0.000000
0.001070 0.000912 0.000000
0.001077 0.000910 0.000000
0.001072 0.000906 0.000000
0.001079 0.000905 0.000000
0.001086 0.000895 0.000000
0.001092 0.000898 0.000000
0.001090 0.000891 0.000000
0.001099 0.000887 0.000000
0.001104 0.000877 0.000000
0.001108 0.000887 0.000000
0.001113 0.000872 0.000000
0.001117 0.000867 0.000000
0.001117 0.000872 0.000000
0.001126 0.000861 0.000000
0.001129 0.000858 0.000000
0.001131 0.000852 0.000000
0.000054 0.000445 0.000000
0.000057 0.000450 0.000000
0.000053 0.000459 0.000000
0.000052 0.000463 0.000000
0.000059 0.000467 0.000000
0.000054 0.000473 0.000000
0.000057 0.000477 0.000000
0.000057 0.000481 0.000000
0.000052 0.000483 0.000000
0.000056 0.000487 0.000000
0.000056 0.000497 0.000000
0.000059 0.000496 0.000000
0.000954 0.000962 0.000000
0.001046 0.000958 0.000000
0.001042 0.000952 0.000000
[...]
POINT_DATA 11346
SCALARS density float 1
LOOKUP_TABLE default
4429.026424
4438.096288
4429.469269
4417.635638
4424.480946
4424.184982
4428.851716
4435.543761
4430.325383
4420.780755
4433.447665
4401.349258
4432.028354
4421.780810
4419.908550
4440.599073
4441.930511
4442.894352
4447.780738
4453.119668
4426.941336
4430.642814
4394.903637
4439.938334
4435.074634
4428.895037
4451.500816
4424.456373
4414.759645
4448.124099
4421.510261
4401.266777
4428.978617
4419.962829
4411.285635
4441.660527
4456.122225
4430.030450
4428.510040
4422.010260
4414.097082
4430.013673
4455.469127
4407.792734
4413.150687
4407.363096
4413.588132
4412.778173
4423.706980
4424.992691
4447.147913
4459.297035
4451.663917
4402.918861
4393.925654
4379.505103
4449.356793
4401.764635
4435.074756
4459.402346
4421.345280
4432.410699
4404.821969
4402.658386
4419.077083
4427.550061
4466.594565
4412.826601
4395.124062
4402.524504
4451.930937
4380.378409
4475.233109
4371.815508
4452.185497
4399.227294
4459.832777
4474.719703
4431.397263
4398.940523
4420.864529
4412.388322
4454.111576
4439.334943
4409.244992
4394.307224
4423.427482
4441.536718
4395.941412
4439.599767
4439.719213
4395.447943
4421.526323
4427.825077
4452.052955
4411.622066
4421.491965
4436.702346
4426.676409
4420.689820
4427.200605
4462.878762
4475.338231
4381.458382
4486.792676
4375.791140
4517.229054
4398.898385
4436.617703
4371.818175
4419.764666
4448.812981
4480.587313
4456.277027
4455.724475
4379.746667
4429.543516
4433.947377
4415.051336
4472.216941
4401.598780
4459.474718
4436.781908
4467.635285
4437.749841
4364.451555
4499.740843
4443.421474
4443.901989
4437.821422
4421.976098
4455.986268
4447.955608
4453.999140
4405.590685
4462.858629
4469.293212
4379.862261
4465.897262
4434.647404
4415.334322
4426.563695
4483.214794
4418.858564
4476.305216
4395.127860
4465.042885
4453.087452
4400.444247
4386.022366
4401.150127
4419.637528
4428.541415
4427.242882
4420.169874
4464.820741
4456.459977
4378.216167
4398.642114
4420.239293
4435.176429
4444.764016
4422.683960
4399.157313
4397.653085
4411.601368
4475.775295
4357.737269
4430.767452
4476.529977
4406.101244
4426.410621
4435.495453
4408.028800
4388.268907
4388.932162
4445.826725
4454.150709
4407.882064
4428.687572
4463.640930
4450.501145
4461.921267
4435.175892
4447.594270
4452.354509
4383.353283
4427.059935
4414.296133
4418.914386
4497.858437
4411.110006
4421.356066
4433.660432
4417.845056
4450.883529
4412.587152
4463.245845
4376.469394
4457.394606
4445.932976
4411.843687
4459.902823
4421.749419
4419.815636
4438.965416
4459.065420
4394.503345
4444.573282
4471.121637
4418.062858
4417.675855
4437.965429
4456.557161
4454.730706
4447.321450
4434.792759
4397.765941
4412.098359
4456.137987
4432.928497
4391.816680
4399.600432
4443.236900
4433.346499
4416.270754
4453.486815
4415.234749
4441.969094
4435.607146
4450.115307
4421.302016
4390.283295
4435.856271
4415.205339
4442.957501
4412.095711
4427.246414
4397.335241
4408.417289
4418.659572
4446.960548
4450.286162
4396.325315
4435.327105
4455.190946
4390.470743
4433.764977
4413.991515
4451.152785
4439.628501
4436.974371
4445.948315
4462.753154
4414.180607
4416.310462
4435.246984
4435.342624
4402.514404
4445.184726
4435.315130
4439.171703
4420.469359
4433.258597
4451.537970
4421.149428
4432.948654
4429.579853
4427.384008
4464.833458
4404.505464
4435.981052
4414.625545
4443.498207
4453.394961
4430.763846
4460.969358
4440.813907
4413.481169
4437.677943
4413.109115
4425.760859
4423.624503
4428.832413
4419.269503
4395.258843
4413.670944
4432.793689
4432.328097
4423.196310
4433.355954
4420.943726
4398.228302
4453.107897
4429.145034
4439.176018
4462.697732
4427.341810
4474.548703
4423.423455
4433.796594
4438.363833
4393.906924
4418.728068
4432.168161
4455.029615
4418.616523
4447.866819
4455.976740
4421.344600
4426.055215
4437.044378
4416.299128
4444.470462
4434.138633
4445.434457
4430.023249
4459.871933
4432.808025
4426.702169
4426.421108
4427.538151
4430.355259
4444.712557
4431.632141
4449.736314
4425.843845
4385.798831
4382.479513
4434.620404
4530.413105
4402.338675
4437.016834
4428.190591
4395.586338
4444.920059
4426.576712
4378.982848
4465.948373
4433.975362
4397.285480
4434.055831
4443.685307
4429.511289
4438.558441
4448.620566
4443.910940
4433.775661
4399.740965
4406.674763
4419.132749
4429.148874
4443.934078
4413.492872
4435.104871
4413.211400
4423.660378
4450.575231
4435.373457
4450.095491
4462.237465
4355.311517
4408.168987
4415.307945
4424.791819
4433.656175
4421.394584
4417.059662
4445.654701
4439.451085
4392.715515
4438.367178
4442.653202
4379.553254
4446.799301
4399.248783
4414.440932
4444.629511
4461.356528
4421.477522
4450.330396
4448.755441
4427.941299
4426.855274
4428.894345
4430.261310
4397.299198
4400.314685
4439.400513
4438.694649
4420.629718
4421.588051
4457.027507
4384.263562
4446.282981
4437.988340
4410.030924
4430.065982
4424.484557
4380.069208
4393.123243
4417.632616
4439.550834
4425.861344
4447.684177
4443.862918
4438.364284
4410.804631
4403.780629
4428.426136
4424.245571
4436.733905
4401.540449
4417.328864
4437.951694
4430.633061
4437.254960
4422.138786
4441.922590
4425.261502
4451.446200
4439.764528
4426.687765
4394.745521
4450.386730
4417.961906
4416.079213
4440.076780
4414.819301
4437.332859
4416.919494
4392.483576
4446.531654
4374.037240
4440.441572
4415.600353
4440.147409
4438.773101
4468.053806
4434.510439
4427.880044
4446.470407
4427.968796
4443.175867
4439.214063
4434.732854
4426.750292
4428.284334
4404.032611
4449.778960
4436.083015
4430.567669
4444.855607
4448.072750
4427.812810
4435.419707
4396.654983
4414.355740
4441.495672
4450.327012
4423.278212
4440.286383
4434.846048
4457.014388
4447.430246
4464.402215
4457.027573
4446.825973
4385.247695
4407.271638
4421.322844
4438.388866
4445.242359
4426.860001
4444.892219
4404.546056
4418.384367
4399.800197
4436.543394
4435.257571
4441.611539
4408.231744
4402.772485
4445.665336
4420.746374
4399.543429
4439.187272
4435.314209
4445.138280
4397.533525
4392.520848
4451.911364
4433.550161
4420.461867
4429.971293
4444.653249
4437.177011
4413.420299
4409.530331
4414.813228
4394.705804
4414.653890
4411.779613
4427.413944
4401.184590
4424.075467
4431.801090
4447.793487
4440.390475
4436.380837
4421.270200
4428.818533
4423.979743
4436.411180
4423.833325
4443.246681
4372.132842
4434.247092
4418.887496
4424.857634
4422.985954
4391.155526
4394.528061
4432.459362
4427.709503
4426.374456
4422.928272
4435.279736
4482.050825
4442.773751
4422.107424
4443.860613
4412.940667
4455.454095
4451.363054
4427.700792
4428.813221
4396.357865
4409.937036
4433.246959
4405.756509
4444.005432
4419.220187
4442.245550
4444.561012
4427.120195
4430.253973
4411.512524
4448.046566
4454.280737
4442.617746
4444.494971
4409.547188
4491.311082
4434.269343
4476.868980
4433.786309
4428.751303
4440.333369
4435.836362
4462.658706
4422.966547
4486.999192
4500.153994
4433.932285
4430.294499
4420.315690
4445.946940
4435.984245
4440.130798
4419.004663
4445.907382
4440.554501
4436.172813
4425.720166
4427.983864
4415.543792
4427.546823
4428.873548
4436.954654
4425.222247
4443.432636
4444.980967
4434.608710
4442.770488
4443.260320
4386.793211
4419.616259
4414.167314
4414.891967
4432.012856
4438.069933
4423.252899
4442.202471
4433.337220
4434.119383
4439.260243
4449.469160
4429.504642
4419.313125
4418.511297
4442.673268
4439.780045
4433.322996
4416.963973
4415.567304
4425.463254
4435.062256
4459.838525
4417.831758
4432.470402
4447.058130
4419.989029
4418.569826
4432.600178
4457.311678
4416.701172
4420.278085
4428.067295
4434.104126
4425.431810
4442.329892
4440.657830
4469.020851
4434.996394
4440.162988
4437.096315
4443.047631
4493.192699
4436.065250
4446.719804
4439.700839
4393.131741
4428.960464
4399.706276
4432.571980
4438.716254
4446.659949
4428.930289
4432.341582
4428.478175
4434.257440
4449.639827
4410.540677
4404.255453
4467.320874
4399.624991
4407.282373
4465.283575
4473.634304
4392.526547
4503.274714
4423.702895
4426.804931
4412.865675
4472.755631
4438.841017
4419.397932
4354.407422
4437.671039
4387.934347
4442.447847
4477.433822
4427.749073
4463.439741
4447.179068
4421.153100
4422.207265
4439.923975
4409.314229
4413.943480
4424.409702
4426.718401
4420.750536
4421.477361
4442.236059
4440.305293
4430.599784
4440.685879
4414.972656
4449.226388
4365.671985
4434.180345
4434.961742
4438.752839
4423.211439
4432.482359
4451.314857
4456.888457
4414.511449
4445.043998
4423.233863
4392.308015
4351.830581
4459.450748
4394.509542
4425.040056
4426.094309
4447.841842
4422.897868
4448.521745
4426.745995
4457.511999
4427.738282
4417.968198
4429.264920
4397.698545
4431.437469
4421.053033
4416.646878
4442.293394
4408.437322
4453.352465
4395.543224
4391.345113
4463.691954
4431.478852
4471.218723
4397.846349
4431.469838
4437.760508
4434.342875
4432.294931
4462.937805
4446.416248
4374.512572
4359.007507
4455.266343
4392.321286
4379.099555
4418.743586
4428.376168
4460.387830
4414.320865
4414.679113
4416.847655
4435.923015
4425.971392
4449.929109
4422.736644
4439.857198
4419.384933
4407.055280
4434.993190
4457.494106
4456.242034
4433.509638
4428.659797
4454.701759
4416.086579
4430.458293
4402.478505
4368.312442
4415.046711
4407.488768
4419.639070
4388.121251
4447.336695
4439.059514
4457.942925
4442.671850
4469.758239
4414.501389
4435.879733
4452.160434
4413.958181
4456.648383
4425.928141
4426.241047
4430.080160
4430.114938
4430.222544
4430.069404
4429.592613
4429.344535
4428.995401
4429.268736
4429.934637
4430.923415
4431.321824
4431.167078
4430.295271
4430.011279
4427.343082
4429.339667
4428.395982
4428.708100
4429.572096
4430.706186
4432.051028
4433.036554
4433.249424
4431.769470
4429.915058
4428.636829
4428.751463
4430.258456
4431.999446
4428.253989
4429.630636
4430.518819
4430.805179
4430.276958
4429.082918
4427.980241
4426.669523
4426.865362
4428.315795
4431.003126
4432.269192
4431.733766
4430.811932
4428.240767
4428.670603
4429.170850
4428.156559
4428.152706
4429.021126
4430.418876
4431.815732
4433.574330
4433.340554
4432.057578
4429.067115
4427.509298
4427.286819
4428.879556
4430.185421
4429.105297
4429.599054
4430.666910
4430.927134
4430.177460
4429.050914
4427.610045
4426.016547
4426.160913
4427.574235
4430.446282
4431.884742
4432.163118
4429.197559
4430.070941
4429.025875
4429.197728
4428.185509
4427.816908
4429.104486
4429.866765
4431.969527
4432.926613
4433.661862
4431.083425
4429.355770
4426.354174
4427.494546
4428.088747
4428.734625
4429.366731
4429.461425
4430.929317
4430.749129
4430.184280
4428.887797
4427.398903
4425.761807
4425.816146
4427.287419
4429.958728
4431.697968
4430.692575
4427.997080
4427.614500
4429.062399
4429.063079
4428.302927
4427.668743
4428.952851
4429.787444
4431.643274
4432.928693
4433.253614
4431.192910
4428.775997
4426.399031
4427.120456
4426.953230
4429.253373
4428.893744
4429.672687
4430.620434
4430.647911
4430.343200
4428.429985
4427.669096
4425.193815
4426.029935
4426.730002
4430.253833
4431.503312
4432.158461
4429.405448
4430.218378
4428.992369
4429.212268
4427.966588
4427.896962
4428.461915
4430.047392
4430.989551
4433.136318
4432.833474
4431.122127
4428.865561
4426.251192
4427.960696
4428.969205
4428.842089
4429.049858
4429.796738
4430.350230
4431.048130
4429.592584
4428.934536
4426.769486
4425.749652
4425.287373
4427.236412
4429.295362
4432.371208
4430.250454
4429.533776
4427.990533
4428.869878
4429.144946
4427.883603
4427.554994
4428.463513
4429.621630
4430.943245
4432.892773
4432.835861
4431.084884
4428.477698
4426.403610
4427.118639
4428.329505
4428.969968
4428.881566
4429.407412
4430.594668
4430.625760
4429.780625
4428.404773
4427.165267
4425.208519
4425.781949
4426.458182
4429.906721
4431.802178
4432.022517
4429.717526
4430.800395
4444.790604
4443.206890
4442.518719
4426.578749
4419.861647
4451.713041
4430.572152
4403.449460
4415.792502
4454.410262
4456.247610
4396.151506
4421.783729
4453.134889
4423.552183
4426.420798
4428.679139
4428.928487
4427.953623
4426.949816
4428.670535
4429.077232
4431.009057
4432.514289
4432.763288
4430.747673
4428.553448
4425.952492
4428.437302
4429.284645
4432.081850
4436.384691
4414.817312
4405.882286
4412.559856
4406.816384
4443.427016
4433.159588
4394.523047
4380.264216
4417.103012
4421.529136
4439.298783
4426.949235
4388.922412
4420.700797
4410.827615
4428.508285
4429.397159
4430.342924
4430.660747
4429.480546
4428.345796
4427.025211
4425.142533
4425.730197
4426.070869
4429.368494
4431.729410
4430.957404
4429.717385
4431.313214
4439.302118
4418.216543
4433.655017
4434.946447
4406.744654
4447.922197
4416.749889
4419.784852
4394.656722
4443.660225
4430.778380
4426.588338
4435.454674
4441.180408
4439.459462
4426.353283
4428.462931
4429.125732
4427.372731
4427.268634
4427.779175
4429.637641
4429.935831
4433.033169
4431.509924
4431.238072
4427.435862
4425.395570
4426.672727
4426.981623
4427.655667
4460.998212
4446.294562
4399.285214
4404.596129
4402.174877
4446.861429
4429.860310
4433.396702
4438.349829
4461.534785
4437.408192
4427.141669
4373.277165
4388.767747
4450.954008
4453.726042
4428.204738
4429.558637
4429.959422
4430.665867
4429.412741
4428.154150
4426.926020
4425.059389
4425.471172
4425.640426
4428.482606
4431.432213
4429.181988
4427.419104
4427.412275
4457.344516
4405.368841
4450.365169
4448.009373
4450.996821
4429.467828
4440.021336
4459.374324
4427.026301
4438.435481
4384.159763
4435.907745
4408.930328
4428.700178
4432.000717
4420.815310
4428.081770
4428.938282
4427.300042
4427.102485
4427.560508
4429.602678
4429.657771
4432.741046
4431.388452
4430.691383
4427.345904
4424.586073
4426.168673
4426.746719
4425.278767
4438.416723
4413.649299
4417.888741
4399.635641
4484.744446
4385.913227
4429.762027
4436.308180
4439.358466
4401.572251
4398.936711
4414.119659
4427.531040
4418.520840
4447.367407
4418.249546
4428.365422
4429.454086
4429.957816
4430.728529
4429.195896
4428.335775
4426.426623
4425.466422
4425.123377
4425.608792
4427.783547
4431.443177
4427.844600
4427.943279
4426.228266
4428.598554
4436.235536
4472.422816
4415.779563
4373.070872
4448.664624
4433.362930
4431.695199
4414.847242
4444.560712
4435.825247
4465.194071
4446.405855
4414.459232
4482.163028
4409.484326
4427.934445
4428.786637
4427.279477
4426.669941
4427.606468
4429.013061
4429.745615
4432.347935
4431.566192
4430.479073
4427.340494
4424.557924
4426.221742
4426.121821
4423.993815
4413.708455
4449.286653
4440.895094
4427.264622
4400.276503
4470.440040
4419.634228
4425.179033
4425.485981
4423.919644
4443.160677
4390.857664
4463.041112
4383.810937
4427.053133
4423.397291
4428.150693
4429.082945
4430.191512
4430.406290
4429.349004
4427.861311
4426.813507
4425.144956
4425.965828
4424.892284
4428.385974
4431.209522
4429.659772
4427.412899
4427.383711
4405.842516
4418.779633
4444.405423
4408.400434
4439.001029
4440.740652
4423.810183
4423.468565
4382.125346
4428.251192
4417.040931
4412.869372
4465.309036
4448.850233
4422.057135
4391.016131
4427.939713
4428.480476
4427.513332
4426.046446
4427.778774
4428.426854
4429.865077
4432.054668
4431.580107
4430.404882
4427.468347
4424.213071
4426.943986
4426.125079
4428.709695
4443.671492
4428.551656
4437.526399
4452.902181
4380.658526
4418.167146
4426.236890
4446.716729
4432.070701
4439.823970
4455.107104
4440.288968
4399.471158
4440.902370
4384.331001
4446.859497
4427.943215
4429.018759
4430.051669
4430.409934
4429.315686
4427.683154
4426.946644
4425.269602
4426.159768
4424.522000
4427.995249
4431.399649
4429.410171
4428.294222
4427.277147
4419.362477
4432.417963
4465.729762
4446.408900
4474.401748
4433.369984
4459.096286
4451.812705
4370.997291
4438.763240
4385.904949
4436.892529
4467.750262
4381.826325
4451.858363
4398.923815
4427.857633
4428.663868
4427.116996
4426.408248
4426.910720
4428.945359
4429.139956
4432.157861
4431.267631
4430.568150
4426.795758
4424.295500
4425.078218
4426.682701
4425.345074
4435.345363
4450.663364
4434.642950
4383.797568
4437.322729
4427.496115
4430.213042
4446.556269
4455.907464
4431.107934
4467.565422
4407.896500
4426.286588
4419.457952
4429.309514
4436.208876
4427.713697
4429.393744
4429.508616
4430.673002
4429.380625
4427.917074
4426.554944
4426.263400
4425.395070
4424.910223
4427.041483
4431.213975
4428.135247
4427.143119
4425.344670
4418.709553
4409.709069
4415.712566
4439.713793
4435.959599
4440.825014
4444.823070
4432.443333
4418.456691
4427.025967
4400.087113
4460.901847
4411.656243
4418.038179
4497.444946
4443.399933
4427.547774
4429.106995
4426.515480
4427.045560
4426.071410
4429.721298
4428.357449
4432.540455
4430.917874
4430.572344
4426.498521
4424.357447
4424.703296
4425.185057
4426.013484
4415.877209
4413.362168
4387.426697
4454.053368
4448.107598
4415.073596
4426.030854
4425.736845
4415.859326
4444.075904
4429.223532
4446.826593
4410.302685
4428.467529
4402.538078
4452.346705
4427.504619
4429.785598
4429.030647
4431.422254
4428.767269
4428.521194
4425.693237
4427.000588
4424.992201
4425.307262
4426.576102
4431.180124
4428.159155
4428.074282
4424.012772
4426.436730
4426.665834
4418.492375
4430.422184
4425.823005
4437.002897
4418.244286
4436.286628
4431.558247
4425.395626
4395.536319
4432.989107
4442.403282
4436.181634
4406.606224
4398.236801
4427.699844
4428.848309
4426.918505
4426.323358
4426.679075
4428.608110
4428.763801
4432.776684
4430.653376
4431.186565
4426.493194
4425.152725
4423.714130
4426.389849
4424.194922
4433.874752
4429.895597
4431.122201
4399.238805
4418.478769
4451.674719
4419.036155
4426.581715
4415.665342
4461.805937
4432.610649
4420.948591
4426.177749
4399.872978
4432.972348
4429.775701
4427.860107
4429.200444
4429.818382
4431.039324
4428.855957
4428.488263
4426.399648
4426.403321
4426.793583
4424.718327
4426.686366
4431.253509
4429.954555
4427.121673
4426.097581
4404.059917
4409.439284
4428.211588
4426.201395
4385.882345
4426.875913
4442.331871
4429.550374
4453.028521
4430.583607
4449.282501
4407.574424
4428.418174
4416.358434
4415.553948
4411.271548
4428.053837
4428.747501
4427.110489
4425.941206
4426.749540
4427.722421
4429.620624
4432.080378
4431.129921
4430.608477
4427.620794
4423.438013
4425.022754
4425.035631
4425.690204
4444.427830
4445.130601
4443.963087
4450.982207
4392.437560
4416.864667
4441.672959
4374.470998
4462.976771
4466.005350
4444.643809
4365.796777
4435.241221
4441.574887
4414.705209
4429.647427
4427.934569
4428.602240
4430.308055
4430.010493
4429.993577
4427.312245
4427.623178
4425.621196
4427.588917
4423.784745
4426.549051
4431.890779
4428.458620
4426.349526
4427.439491
4439.478962
4418.854753
4420.516014
4455.832574
4389.967087
4434.235699
4433.878230
4428.239307
4454.050787
4455.976752
4462.423602
4404.268016
4424.537887
4432.685907
4364.628070
4431.573906
4427.851876
4429.088392
4426.926869
4426.487348
4425.692323
4428.959566
4428.817787
4432.530514
4431.590748
4431.430393
4426.969387
4424.123818
4423.598403
4424.117430
4424.773521
4425.311543
4431.364383
4419.250750
4383.378759
4431.747792
4444.277010
4436.117876
4428.010129
4428.182161
4442.422167
4404.249699
4419.339351
4397.956864
4429.911833
4410.145364
4443.886052
4427.618705
4429.686711
4428.572821
4431.977620
4429.322628
4428.843278
4426.961728
4428.166467
4425.942148
4424.481040
4427.101806
4430.587925
4428.289482
4427.411635
4423.689722
4422.088880
4424.345535
4427.071364
4430.934994
4461.084284
4409.047679
4418.899801
4470.334285
4420.013504
4454.031259
4402.138675
4389.150241
4474.494469
4422.852268
4574.588051
4411.239645
4427.642432
4429.057963
4427.565261
4426.251032
4426.138492
4429.002886
4427.901585
4433.789708
4430.412483
4431.127011
4426.283439
4425.872205
4422.972707
4425.685815
4422.484831
4436.666383
4434.045747
4430.041626
4417.739977
4462.917207
4461.838682
4440.191227
4441.652765
4469.700632
4451.691292
4441.910102
4449.701925
4447.009028
4434.714263
4274.478058
4427.781777
4428.008335
4430.014644
4428.668245
4432.572185
4428.457221
4429.452759
4425.393495
4428.625093
4424.065933
4425.983526
4425.570282
4430.268295
4426.855905
4427.855259
4421.157763
4425.346374
4406.092292
4411.246531
4424.421502
4446.816955
4415.545783
4439.177223
4442.675485
4424.560399
4421.704008
4406.110374
4429.162810
4451.854788
4448.105748
4378.371286
4399.556856