# vtk DataFile Version 2.0
mfree iwf
ASCII

DATASET UNSTRUCTURED_GRID
POINTS 11316 float
0.000000 0.000445 0.000000
0.000000 0.000450 0.000000
0.000000 0.000455 0.000000
0.000000 0.000460 0.000000
0.000000 0.000465 0.000000
0.000000 0.000470 0.000000
0.000000 0.000475 0.000000
0.000000 0.000480 0.000000
0.000000 0.000485 0.000000
0.000000 0.000490 0.000000
-0.000000 0.000496 0.000000
0.000002 0.000500 0.000000
0.000990 0.000966 0.000000
0.000999 0.000966 0.000000
0.001045 0.000954 0.000000
0.001050 0.000952 0.000000
0.001050 0.000952 0.000000
0.001057 0.000950 0.000000
0.001063 0.000947 0.000000
0.001059 0.000949 0.000000
0.001073 0.000944 0.000000
0.001098 0.000934 0.000000
0.001103 0.000929 0.000000
0.001107 0.000927 0.000000
0.001110 0.000923 0.000000
0.001114 0.000920 0.000000
0.001118 0.000917 0.000000
0.001121 0.000913 0.000000
0.001124 0.000910 0.000000
0.001129 0.000906 0.000000
0.001133 0.000902 0.000000
0.001153 0.000891 0.000000
0.000005 0.000445 0.000000
0.000005 0.000450 0.000000
0.000005 0.000455 0.000000
0.000005 0.000460 0.000000
0.000005 0.000465 0.000000
0.000005 0.000470 0.000000
0.000005 0.000475 0.000000
0.000005 0.000480 0.000000
0.000005 0.000485 0.000000
0.000006 0.000490 0.000000
0.000003 0.000496 0.000000
0.000006 0.000499 0.000000
0.001040 0.000954 0.000000
0.001045 0.000946 0.000000
0.001079 0.000939 0.000000
0.001085 0.000937 0.000000
0.001090 0.000935 0.000000
0.001093 0.000933 0.000000
0.001095 0.000931 0.000000
0.001098 0.000928 0.000000
0.001101 0.000925 0.000000
0.001106 0.000921 0.000000
0.001111 0.000916 0.000000
0.001116 0.000912 0.000000
0.001120 0.000906 0.000000
0.001127 0.000901 0.000000
0.001130 0.000898 0.000000
0.001135 0.000895 0.000000
0.001145 0.000891 0.000000
0.001147 0.000890 0.000000
0.001142 0.000893 0.000000
0.001151 0.000889 0.000000
0.000010 0.000445 0.000000
0.000011 0.000450 0.000000
0.000010 0.000456 0.000000
0.000011 0.000460 0.000000
0.000010 0.000465 0.000000
0.000010 0.000469 0.000000
0.000009 0.000475 0.000000
0.000011 0.000480 0.000000
0.000009 0.000486 0.000000
0.000012 0.000489 0.000000
0.000009 0.000497 0.000000
0.000011 0.000498 0.000000
0.001040 0.000950 0.000000
0.001048 0.000944 0.000000
0.001064 0.000942 0.000000
0.001072 0.000940 0.000000
0.001076 0.000939 0.000000
0.001081 0.000937 0.000000
0.001072 0.000934 0.000000
0.001081 0.000930 0.000000
0.001086 0.000930 0.000000
0.001092 0.000926 0.000000
0.001101 0.000921 0.000000
0.001105 0.000917 0.000000
0.001105 0.000912 0.000000
0.001110 0.000908 0.000000
0.001115 0.000908 0.000000
0.001124 0.000902 0.000000
0.001137 0.000893 0.000000
0.001139 0.000891 0.000000
0.001145 0.000885 0.000000
0.001146 0.000880 0.000000
0.000014 0.000445 0.000000
0.000016 0.000450 0.000000
0.000014 0.000455 0.000000
0.000018 0.000460 0.000000
0.000015 0.000470 0.000000
0.000015 0.000464 0.000000
0.000014 0.000476 0.000000
0.000017 0.000480 0.000000
0.000014 0.000485 0.000000
0.000016 0.000489 0.000000
0.000014 0.000495 0.000000
0.000016 0.000498 0.000000
0.000025 0.000500 0.000000
0.001052 0.000945 0.000000
0.001066 0.000940 0.000000
0.001062 0.000937 0.000000
0.001076 0.000932 0.000000
0.001085 0.000935 0.000000
0.001087 0.000925 0.000000
0.001094 0.000922 0.000000
0.001090 0.000919 0.000000
0.001097 0.000918 0.000000
0.001106 0.000904 0.000000
0.001110 0.000913 0.000000
0.001115 0.000901 0.000000
0.001120 0.000902 0.000000
0.001120 0.000897 0.000000
0.001125 0.000896 0.000000
0.001130 0.000891 0.000000
0.001134 0.000889 0.000000
0.001137 0.000885 0.000000
0.001145 0.000878 0.000000
0.000019 0.000445 0.000000
0.000021 0.000450 0.000000
0.000018 0.000455 0.000000
0.000022 0.000458 0.000000
0.000018 0.000467 0.000000
0.000025 0.000467 0.000000
0.000018 0.000475 0.000000
0.000022 0.000478 0.000000
0.000019 0.000486 0.000000
0.000021 0.000490 0.000000
0.000021 0.000497 0.000000
0.000022 0.000499 0.000000
0.000039 0.000500 0.000000
0.001048 0.000933 0.000000
0.001055 0.000939 0.000000
0.001062 0.000931 0.000000
0.001068 0.000937 0.000000
0.001079 0.000926 0.000000
0.001078 0.000922 0.000000
0.001092 0.000917 0.000000
0.001082 0.000920 0.000000
0.001095 0.000912 0.000000
0.001096 0.000903 0.000000
0.001101 0.000899 0.000000
0.001106 0.000899 0.000000
0.001115 0.000895 0.000000
0.001121 0.000887 0.000000
0.001127 0.000887 0.000000
0.001130 0.000884 0.000000
0.001138 0.000879 0.000000
0.001141 0.000882 0.000000
0.001142 0.000874 0.000000
0.000024 0.000445 0.000000
0.000026 0.000450 0.000000
0.000024 0.000455 0.000000
0.000026 0.000461 0.000000
0.000021 0.000466 0.000000
0.000025 0.000472 0.000000
0.000023 0.000476 0.000000
0.000027 0.000481 0.000000
0.000023 0.000485 0.000000
0.000026 0.000488 0.000000
0.000026 0.000493 0.000000
0.000027 0.000500 0.000000
0.001020 0.000961 0.000000
0.001055 0.000942 0.000000
0.001059 0.000941 0.000000
0.001074 0.000928 0.000000
0.001066 0.000925 0.000000
0.001086 0.000924 0.000000
0.001085 0.000915 0.000000
0.001075 0.000921 0.000000
0.001083 0.000912 0.000000
0.001100 0.000914 0.000000
0.001099 0.000908 0.000000
0.001102 0.000908 0.000000
0.001111 0.000904 0.000000
0.001112 0.000898 0.000000
0.001124 0.000891 0.000000
0.001119 0.000891 0.000000
0.001133 0.000881 0.000000
0.001126 0.000882 0.000000
0.001135 0.000876 0.000000
0.001138 0.000870 0.000000
0.000030 0.000445 0.000000
0.000031 0.000450 0.000000
0.000029 0.000456 0.000000
0.000031 0.000460 0.000000
0.000032 0.000465 0.000000
0.000027 0.000469 0.000000
0.000032 0.000472 0.000000
0.000031 0.000477 0.000000
0.000030 0.000486 0.000000
0.000031 0.000492 0.000000
0.000033 0.000497 0.000000
0.000030 0.000499 0.000000
0.000049 0.000500 0.000000
0.001044 0.000940 0.000000
0.001057 0.000929 0.000000
0.001068 0.000930 0.000000
0.001064 0.000927 0.000000
0.001071 0.000924 0.000000
0.001077 0.000913 0.000000
0.001090 0.000905 0.000000
0.001089 0.000912 0.000000
0.001093 0.000907 0.000000
0.001102 0.000903 0.000000
0.001107 0.000890 0.000000
0.001108 0.000894 0.000000
0.001112 0.000891 0.000000
0.001116 0.000883 0.000000
0.001116 0.000888 0.000000
0.001123 0.000877 0.000000
0.001129 0.000877 0.000000
0.001133 0.000873 0.000000
0.001135 0.000867 0.000000
0.000035 0.000445 0.000000
0.000035 0.000450 0.000000
0.000034 0.000456 0.000000
0.000038 0.000454 0.000000
0.000035 0.000467 0.000000
0.000037 0.000472 0.000000
0.000032 0.000479 0.000000
0.000041 0.000478 0.000000
0.000035 0.000484 0.000000
0.000034 0.000488 0.000000
0.000037 0.000491 0.000000
0.000036 0.000498 0.000000
0.000978 0.000965 0.000000
0.001015 0.000962 0.000000
0.001053 0.000933 0.000000
0.001058 0.000924 0.000000
0.001071 0.000917 0.000000
0.001064 0.000915 0.000000
0.001080 0.000916 0.000000
0.001078 0.000908 0.000000
0.001086 0.000908 0.000000
0.001079 0.000901 0.000000
0.001088 0.000894 0.000000
0.001100 0.000890 0.000000
0.001103 0.000893 0.000000
0.001107 0.000886 0.000000
0.001120 0.000881 0.000000
0.001112 0.000870 0.000000
0.001125 0.000873 0.000000
0.001127 0.000872 0.000000
0.001130 0.000868 0.000000
0.001132 0.000863 0.000000
0.000040 0.000445 0.000000
0.000041 0.000450 0.000000
0.000036 0.000461 0.000000
0.000040 0.000459 0.000000
0.000042 0.000463 0.000000
0.000039 0.000467 0.000000
0.000042 0.000472 0.000000
0.000037 0.000478 0.000000
0.000041 0.000487 0.000000
0.000042 0.000491 0.000000
0.000041 0.000497 0.000000
0.000044 0.000498 0.000000
0.000833 0.000906 0.000000
0.001041 0.000947 0.000000
0.001044 0.000936 0.000000
0.001054 0.000920 0.000000
0.001068 0.000920 0.000000
0.001073 0.000912 0.000000
0.001068 0.000914 0.000000
0.001084 0.000904 0.000000
0.001091 0.000898 0.000000
0.001094 0.000898 0.000000
0.001087 0.000900 0.000000
0.001094 0.000887 0.000000
0.001102 0.000884 0.000000
0.001108 0.000880 0.000000
0.001111 0.000885 0.000000
0.001113 0.000879 0.000000
0.001117 0.000876 0.000000
0.001121 0.000869 0.000000
0.001127 0.000865 0.000000
0.001129 0.000859 0.000000
0.000044 0.000445 0.000000
0.000046 0.000450 0.000000
0.000044 0.000455 0.000000
0.000045 0.000460 0.000000
0.000044 0.000468 0.000000
0.000046 0.000474 0.000000
0.000046 0.000479 0.000000
0.000040 0.000483 0.000000
0.000052 0.000485 0.000000
0.000045 0.000484 0.000000
0.000048 0.000493 0.000000
0.000050 0.000498 0.000000
0.000838 0.000911 0.000000
0.001036 0.000955 0.000000
0.001058 0.000934 0.000000
0.001062 0.000920 0.000000
0.001059 0.000917 0.000000
0.001072 0.000907 0.000000
0.001073 0.000903 0.000000
0.001079 0.000903 0.000000
0.001082 0.000893 0.000000
0.001092 0.000892 0.000000
0.001098 0.000895 0.000000
0.001103 0.000881 0.000000
0.001096 0.000882 0.000000
0.001104 0.000876 0.000000
0.001112 0.000875 0.000000
0.001117 0.000872 0.000000
0.001116 0.000867 0.000000
0.001120 0.000864 0.000000
0.001124 0.000862 0.000000
0.001125 0.000856 0.000000
0.000049 0.000445 0.000000
0.000052 0.000450 0.000000
0.000049 0.000455 0.000000
0.000054 0.000455 0.000000
0.000048 0.000464 0.000000
0.000049 0.000471 0.000000
0.000052 0.000467 0.000000
0.000051 0.000477 0.000000
0.000047 0.000488 0.000000
0.000052 0.000491 0.000000
0.000057 0.000492 0.000000
0.000053 0.000498 0.000000
0.000921 0.000955 0.000000
0.001027 0.000952 0.000000
0.001039 0.000942 0.000000
0.001053 0.000923 0.000000
0.001060 0.000911 0.000000
0.001067 0.000909 0.000000
0.001062 0.000905 0.000000
0.001069 0.000904 0.000000
0.001076 0.000894 0.000000
0.001081 0.000897 0.000000
0.001080 0.000890 0.000000
0.001089 0.000886 0.000000
0.001095 0.000876 0.000000
0.001098 0.000887 0.000000
0.001103 0.000871 0.000000
0.001107 0.000866 0.000000
0.001108 0.000872 0.000000
0.001117 0.000861 0.000000
0.001120 0.000857 0.000000
0.001122 0.000852 0.000000
0.000054 0.000445 0.000000
0.000057 0.000450 0.000000
0.000052 0.000459 0.000000
0.000052 0.000463 0.000000
0.000059 0.000467 0.000000
0.000054 0.000473 0.000000
0.000057 0.000477 0.000000
0.000057 0.000481 0.000000
0.000052 0.000482 0.000000
0.000056 0.000487 0.000000
0.000056 0.000497 0.000000
0.000059 0.000496 0.000000
0.000944 0.000960 0.000000
0.001035 0.000957 0.000000
0.001031 0.000950 0.000000
[...]
POINT_DATA 11316
SCALARS density float 1
LOOKUP_TABLE default
4427.668574
4436.710338
4430.015306
4420.177728
4425.022537
4423.613911
4429.898434
4433.746248
4430.210139
4420.516364
4432.722356
4402.059048
4431.283594
4421.633302
4418.593615
4439.173444
4440.612397
4440.123140
4447.215949
4448.583387
4426.629766
4430.969447
4393.669830
4437.926753
4435.715469
4427.534797
4450.796249
4425.866080
4415.973784
4447.898179
4422.128503
4401.160815
4429.047548
4423.336785
4413.264427
4437.587891
4453.720784
4428.615780
4429.561460
4422.131393
4415.756712
4431.036419
4453.702497
4408.152094
4413.078721
4423.581540
4414.932106
4412.387761
4423.651636
4423.750066
4447.023526
4463.224889
4449.275526
4408.264547
4392.860740
4378.033009
4449.058969
4402.972595
4436.359112
4460.236637
4422.316070
4432.282211
4405.291898
4402.465886
4419.677596
4422.725094
4456.833178
4418.162041
4400.770243
4406.084067
4451.228198
4383.577169
4473.185337
4373.350928
4452.538730
4399.428186
4458.363284
4459.286365
4432.988808
4399.519356
4421.374178
4413.583575
4454.160992
4433.422610
4406.367442
4394.637070
4424.708693
4439.706780
4393.891439
4441.535304
4436.664073
4396.601246
4421.629818
4426.825295
4451.521479
4412.765584
4422.468857
4435.596225
4432.549721
4416.315525
4428.852884
4452.815737
4471.816005
4383.230658
4484.174463
4377.149875
4514.728221
4399.576790
4436.759331
4376.681674
4419.330549
4443.681611
4481.126857
4460.269371
4459.254081
4379.065713
4426.215792
4434.320445
4411.417348
4476.475856
4406.927271
4455.831774
4440.694228
4463.348670
4437.284990
4363.558303
4501.744828
4443.931598
4442.796027
4437.072939
4421.180622
4455.464447
4442.869072
4446.800811
4406.827225
4460.646544
4468.603174
4379.643222
4466.875589
4435.291260
4415.021831
4431.196124
4478.282264
4421.995833
4479.044335
4397.092976
4465.502276
4455.826241
4402.641946
4383.710483
4400.647175
4422.592396
4430.499339
4421.589323
4416.071547
4465.306824
4455.132639
4376.721347
4397.801228
4419.950456
4435.346038
4444.944566
4434.192834
4398.607670
4409.439213
4411.141845
4476.074600
4359.532762
4430.753539
4475.901519
4403.939881
4426.322549
4435.070141
4425.941832
4390.032469
4391.856216
4438.784557
4456.661991
4407.380737
4429.916622
4468.685879
4450.783866
4463.854396
4437.171681
4447.269919
4451.541442
4384.585683
4427.138226
4415.819351
4420.859835
4500.130478
4410.159233
4422.591194
4433.044384
4414.524359
4448.272740
4430.003188
4453.749555
4377.455769
4456.986992
4445.440207
4413.272129
4460.040850
4421.562985
4419.832310
4443.738572
4461.685931
4395.554790
4446.217632
4471.966110
4419.338438
4421.018330
4440.242127
4456.275331
4455.675189
4448.354426
4438.287300
4398.124302
4410.986080
4459.541588
4434.184304
4389.965863
4401.252008
4442.862793
4433.245050
4419.582120
4448.296357
4417.750923
4433.382007
4432.884393
4448.993718
4414.718384
4389.684430
4436.154818
4414.235468
4442.823190
4412.320135
4428.156941
4397.877817
4403.292461
4415.873338
4441.543551
4443.615077
4393.098459
4432.446854
4461.020165
4386.885506
4430.089474
4411.722862
4448.821203
4440.978860
4437.437032
4446.018263
4462.649080
4414.519090
4416.387488
4435.077458
4437.797053
4400.662170
4447.318256
4437.820095
4436.284618
4428.784316
4436.013366
4451.069687
4420.885163
4432.636123
4428.739889
4426.774887
4459.624177
4405.803513
4440.176278
4416.210720
4444.664901
4455.865985
4427.621934
4460.873401
4442.623675
4412.561329
4435.572974
4415.999607
4423.178638
4419.989591
4432.014521
4416.613951
4397.238506
4412.966842
4433.078417
4434.022867
4424.253093
4428.707691
4421.216748
4401.255132
4446.882568
4429.773414
4440.182382
4461.542922
4430.976072
4477.003608
4423.570637
4434.039874
4440.456570
4388.070442
4427.503204
4427.195064
4446.737295
4419.530086
4445.344328
4456.425403
4423.895094
4426.057455
4440.350755
4408.935643
4444.188477
4435.480804
4444.787835
4431.464323
4459.752460
4433.234212
4426.465088
4425.185453
4427.678328
4433.091872
4443.530891
4428.110263
4447.121562
4427.777018
4390.839875
4379.979526
4432.251325
4527.620143
4402.784342
4437.123278
4429.709845
4390.875643
4444.263839
4427.815534
4379.192330
4462.030139
4440.032174
4395.942716
4435.241381
4447.731776
4431.947982
4443.169460
4451.369290
4443.824729
4432.004813
4397.664870
4404.770666
4419.934910
4428.961455
4443.613191
4414.317458
4431.967593
4419.142282
4418.712846
4452.466421
4433.385207
4451.722517
4455.764226
4360.372264
4408.010877
4415.734272
4427.555790
4434.646295
4418.134011
4417.287035
4449.241634
4442.180420
4391.300067
4434.882881
4438.908750
4377.972198
4450.788273
4397.478778
4417.163085
4445.035019
4462.090793
4422.065798
4452.974561
4449.304412
4428.451106
4426.723768
4430.327586
4431.714242
4395.967335
4402.972367
4438.200484
4437.788307
4421.352839
4423.441281
4453.081107
4380.068592
4448.157036
4439.503607
4411.897795
4431.654033
4421.704544
4378.250587
4396.035562
4417.599898
4440.771547
4433.307304
4445.198556
4446.264028
4434.171018
4410.384485
4405.990198
4430.526454
4422.049047
4438.043591
4398.866591
4415.843944
4438.189899
4431.097559
4436.961649
4420.350147
4439.674044
4430.902196
4451.743127
4441.323584
4428.906911
4392.207221
4456.005857
4414.684708
4419.234610
4439.483426
4414.923970
4436.416579
4417.550811
4397.976589
4442.445814
4376.407753
4440.831957
4411.853507
4433.236180
4441.876140
4471.411000
4431.865728
4426.920015
4445.878470
4430.977872
4441.519332
4442.217585
4434.458393
4426.489667
4428.364411
4404.890557
4449.062685
4430.832215
4427.317279
4442.581047
4446.188374
4424.783676
4428.633502
4386.623303
4416.535597
4445.280270
4450.760637
4422.703951
4440.392879
4435.520741
4458.321222
4447.757536
4463.556432
4457.398771
4449.318147
4383.738608
4404.233069
4416.888321
4437.580293
4450.269607
4426.082984
4448.098297
4407.253463
4419.725028
4400.756903
4435.354656
4434.505223
4441.343586
4406.208457
4407.990121
4446.725594
4422.110952
4401.468107
4444.229399
4441.807302
4448.418027
4385.786353
4397.050078
4450.708111
4431.511686
4422.849445
4429.607270
4444.933938
4439.336961
4414.587983
4405.557402
4416.072297
4394.354802
4412.357330
4421.486463
4424.375864
4399.769454
4418.439147
4432.310425
4449.663578
4440.212055
4436.765596
4423.472455
4427.133918
4425.561118
4438.959043
4424.746767
4441.268493
4381.968667
4431.363773
4418.792252
4419.746259
4432.210062
4420.073991
4412.201872
4430.107670
4430.134101
4426.256301
4424.551800
4435.376498
4477.534465
4443.076225
4419.191572
4446.277584
4408.649798
4460.068055
4452.163489
4426.454048
4422.849397
4400.086528
4411.723137
4426.802240
4411.317532
4440.385330
4422.003073
4441.409621
4443.798701
4433.121533
4429.476733
4407.827588
4442.803563
4449.064431
4447.508269
4437.772797
4423.635784
4453.006523
4430.658178
4456.723948
4433.755744
4431.214844
4439.485006
4436.453746
4464.916358
4420.825301
4484.614014
4498.782468
4434.161742
4430.908501
4418.419665
4442.270104
4438.408112
4438.876481
4424.689222
4443.390976
4445.014524
4432.337170
4428.389922
4426.839473
4414.137851
4431.040603
4427.586078
4437.004863
4424.974672
4439.881894
4444.753585
4430.520099
4434.210050
4430.996214
4398.540422
4430.009464
4417.850757
4416.138564
4431.817976
4437.728123
4422.650061
4444.361927
4432.266253
4430.619754
4444.299550
4448.337182
4428.259941
4420.837925
4419.186035
4442.315396
4436.569482
4431.035666
4414.515286
4414.468043
4427.506628
4435.253973
4455.811271
4414.192088
4433.576795
4444.549175
4425.940385
4423.531523
4430.436663
4453.130121
4421.348742
4416.596806
4425.054334
4433.388362
4426.235763
4442.807199
4439.503574
4471.427183
4434.137799
4438.598058
4439.223671
4442.626741
4492.199310
4433.184646
4446.457484
4441.776564
4389.422896
4429.830355
4396.736890
4434.468337
4440.231670
4447.975524
4427.101589
4433.876261
4426.331492
4433.819347
4454.776994
4411.000395
4402.380629
4459.565075
4407.832555
4412.847198
4462.922734
4473.736444
4391.510693
4505.848001
4423.783266
4427.113265
4410.133173
4473.609968
4439.446706
4419.779270
4353.433275
4438.753784
4389.504336
4442.947617
4477.295409
4427.070917
4462.185019
4447.780971
4421.640050
4422.550802
4437.489520
4410.236157
4412.448767
4424.437057
4423.760705
4426.080103
4423.221746
4430.838548
4437.382046
4431.121074
4435.385327
4420.444444
4444.929987
4371.856467
4434.530338
4435.759292
4439.848967
4423.755498
4433.641549
4452.837942
4457.014656
4414.414534
4441.865864
4427.529824
4394.293268
4353.983956
4458.824226
4395.028217
4425.751706
4430.030963
4448.023758
4424.387336
4447.485298
4428.046096
4457.461408
4427.966454
4425.377862
4423.853499
4412.235499
4427.321980
4418.590532
4423.770328
4436.948403
4406.378811
4443.811716
4395.185349
4382.065502
4468.059601
4430.410005
4471.283115
4399.766475
4427.815023
4438.470225
4436.201557
4433.000651
4462.022617
4446.696066
4376.258946
4358.922611
4456.100751
4394.383657
4377.661787
4416.630579
4428.173515
4460.354893
4413.881517
4415.121334
4417.442348
4437.498106
4418.697180
4454.056432
4419.808186
4444.373539
4421.032402
4405.923621
4433.044054
4459.638390
4456.226057
4429.644175
4429.985669
4455.308050
4422.132681
4431.432530
4402.074139
4368.862009
4416.913418
4409.263051
4424.688426
4391.503012
4444.635532
4437.467816
4457.107697
4442.790532
4470.838195
4416.546506
4434.701520
4451.716061
4415.424666
4456.113657
4425.831572
4426.299305
4430.106857
4430.108528
4430.211870
4430.036270
4429.550443
4429.293774
4428.932030
4429.189160
4429.842383
4430.792633
4431.157365
4430.940141
4430.163028
4429.944142
4427.362337
4429.422264
4428.423993
4428.777573
4429.606012
4430.736105
4432.018357
4432.990326
4433.179292
4431.682686
4429.830655
4428.595583
4428.726299
4430.147476
4431.678283
4428.239908
4429.653029
4430.441933
4430.761535
4430.190376
4428.997914
4427.904221
4426.625699
4426.761750
4428.268032
4430.870293
4432.125839
4431.509162
4430.695757
4428.460145
4428.638427
4429.190314
4428.169920
4428.206456
4429.050266
4430.437694
4431.816290
4433.523600
4433.292426
4432.028706
4429.024945
4427.610376
4427.399893
4429.129518
4430.141025
4429.063252
4429.591776
4430.577884
4430.851984
4430.064303
4428.966390
4427.527497
4425.966460
4426.129176
4427.515563
4430.383639
4431.819773
4432.023868
4429.312588
4430.221640
4428.959849
4429.187403
4428.174483
4427.864055
4429.122029
4429.890075
4431.950248
4432.911666
4433.585645
4431.089678
4429.370213
4426.443367
4427.701862
4428.163981
4429.036538
4429.291906
4429.418861
4430.850815
4430.633163
4430.077558
4428.784992
4427.326967
4425.704821
4425.798283
4427.253579
4429.911711
4431.592963
4430.721897
4428.017169
4427.589761
4428.977887
4429.011805
4428.304313
4427.668308
4428.996123
4429.769272
4431.669554
4432.853722
4433.253337
4431.109683
4428.845796
4426.530979
4427.131708
4427.238672
4429.427844
4428.816167
4429.614960
4430.543240
4430.511507
4430.240931
4428.314408
4427.602494
4425.142027
4425.999628
4426.708684
4430.164646
4431.354768
4432.161593
4429.427981
4429.893856
4428.914834
4429.166743
4427.935145
4427.930567
4428.451971
4430.080529
4430.935594
4433.140102
4432.734028
4431.122793
4428.842670
4426.321576
4427.934152
4428.808878
4428.979618
4428.980483
4429.748178
4430.251309
4430.945107
4429.444765
4428.869369
4426.666603
4425.719055
4425.236492
4427.213890
4429.164685
4432.278151
4430.025860
4429.316134
4428.062765
4428.792226
4429.095763
4427.859065
4427.563207
4428.486378
4429.616388
4430.917037
4432.865282
4432.738705
4431.077317
4428.470336
4426.407678
4427.180182
4428.222618
4428.660523
4428.827191
4429.348344
4430.519338
4430.503062
4429.658202
4428.301930
4427.111632
4425.124832
4425.788349
4426.370855
4429.839043
4431.668793
4432.001041
4429.842695
4431.278782
4445.512725
4443.579636
4443.215592
4424.982230
4420.445793
4452.462134
4430.736707
4403.368247
4413.140927
4454.887734
4458.549795
4395.879240
4420.277547
4453.872113
4423.967788
4426.637941
4428.629566
4428.855471
4427.951864
4426.946300
4428.698303
4429.073804
4430.988348
4432.454842
4432.727245
4430.656359
4428.601415
4426.001324
4428.368551
4429.409714
4432.093432
4435.285308
4422.820271
4403.100183
4413.598809
4403.817351
4442.811859
4432.441173
4398.444037
4382.150064
4420.262144
4422.348181
4441.743290
4425.015720
4388.394846
4421.071763
4410.486983
4428.474339
4429.327423
4430.302927
4430.505972
4429.398216
4428.220838
4426.974926
4425.096623
4425.639410
4426.063839
4429.220159
4431.525285
4430.958246
4429.663585
4431.243044
4441.540987
4421.398351
4437.363491
4436.186889
4407.951060
4449.304062
4418.791815
4423.041400
4395.179675
4443.395768
4429.996608
4423.162859
4434.914502
4442.178156
4439.152015
4426.528208
4428.434447
4429.056588
4427.373575
4427.260291
4427.818113
4429.604470
4429.925585
4432.951580
4431.483241
4431.125624
4427.395541
4425.474165
4426.494140
4426.844859
4427.872236
4461.662844
4455.090390
4402.156108
4397.935863
4399.834617
4448.107494
4430.492639
4437.609811
4441.330229
4459.788568
4435.246131
4427.869625
4375.252801
4389.764507
4452.430354
4453.851287
4428.195525
4429.502712
4429.920175
4430.527042
4429.313363
4428.039980
4426.892019
4424.955772
4425.455588
4425.517895
4428.413592
4431.080990
4429.089574
4427.216027
4426.804938
4449.468786
4398.032289
4444.514172
4447.350967
4453.129234
4430.048726
4439.900513
4457.772264
4426.053363
4437.880144
4384.742658
4431.335384
4412.750456
4428.189148
4431.632172
4420.844506
4428.069793
4428.879945
4427.297405
4427.092152
4427.608879
4429.555649
4429.639420
4432.681661
4431.319963
4430.595292
4427.304036
4424.529798
4426.179075
4426.408532
4425.597037
4433.329379
4412.746935
4410.528403
4401.535759
4483.010397
4384.297475
4430.464758
4437.113460
4436.365755
4402.442119
4401.127607
4415.492272
4425.915777
4418.770589
4446.369031
4418.144325
4428.370675
4429.402389
4429.928985
4430.587215
4429.099215
4428.225445
4426.389526
4425.358061
4425.078485
4425.501536
4427.668220
4431.142583
4427.705771
4427.595998
4426.364978
4427.981774
4444.542376
4474.800390
4413.833242
4374.281143
4447.806802
4431.819666
4430.990080
4419.880814
4442.132782
4432.776340
4466.539259
4445.606891
4414.735203
4481.952627
4408.892350
4427.938556
4428.723734
4427.277973
4426.661423
4427.646204
4428.972006
4429.728828
4432.261514
4431.543694
4430.318156
4427.308502
4424.473662
4426.052180
4426.116992
4423.398705
4423.618267
4452.300181
4436.284657
4430.104769
4404.719603
4473.250720
4420.330043
4425.095586
4425.553724
4423.638100
4444.791396
4388.326245
4463.166811
4384.535708
4426.492048
4424.153176
4428.152859
4429.042320
4430.152618
4430.278004
4429.243878
4427.757896
4426.769228
4425.056058
4425.873651
4424.817094
4428.256674
4430.931645
4429.454857
4427.204925
4427.444270
4401.283251
4418.030963
4442.510935
4408.956001
4444.358939
4439.533676
4425.601539
4423.462003
4378.204805
4425.737946
4421.520761
4410.568496
4463.877056
4449.650652
4423.519920
4390.621293
4427.933533
4428.425046
4427.490239
4426.037162
4427.802057
4428.403271
4429.826706
4431.994406
4431.522538
4430.310167
4427.357746
4424.169717
4427.026296
4425.866251
4428.726064
4441.224748
4431.973213
4440.671280
4454.587862
4369.997044
4418.540759
4427.419278
4448.228751
4434.391271
4437.630316
4454.699199
4442.852295
4400.189305
4444.052787
4382.287270
4447.400560
4427.933266
4428.977026
4429.996583
4430.303472
4429.179999
4427.580191
4426.917904
4425.129610
4426.122278
4424.370942
4427.993016
4431.077630
4429.183711
4428.220271
4426.862837
4420.303237
4431.651412
4468.214921
4445.568136
4477.355582
4432.361281
4458.650212
4447.802148
4373.271762
4440.437552
4385.910416
4437.491567
4466.756506
4380.282807
4446.722561
4398.411273
4427.840127
4428.587426
4427.092106
4426.353427
4426.953853
4428.891041
4429.111441
4432.101687
4431.232930
4430.485224
4426.707283
4424.281549
4425.099079
4426.572738
4425.311392
4437.065259
4446.124855
4418.725271
4395.788535
4430.843886
4425.258292
4430.653029
4444.261657
4455.055525
4435.124463
4464.107172
4406.204490
4424.750871
4419.354446
4429.941041
4437.707042
4427.686600
4429.319083
4429.478402
4430.526773
4429.249009
4427.817272
4426.503302
4426.171518
4425.279313
4424.875747
4426.966286
4431.003606
4428.019701
4427.012721
4425.523577
4417.318121
4431.675880
4412.001409
4433.972386
4434.230660
4440.020798
4444.984844
4432.261509
4421.069040
4428.550491
4397.918463
4461.017603
4411.346646
4414.254682
4499.166809
4443.923319
4427.505810
4429.034882
4426.430455
4427.017435
4426.052399
4429.699558
4428.276986
4432.511836
4430.891223
4430.487183
4426.425788
4424.369769
4424.656549
4425.404054
4425.678231
4419.679852
4408.837062
4402.744765
4452.583072
4433.496026
4415.300597
4425.918695
4425.531526
4421.436866
4446.425322
4432.454769
4445.938470
4410.823765
4426.859371
4403.300634
4452.852228
4427.438151
4429.720019
4428.957631
4431.295917
4428.601958
4428.442840
4425.603872
4426.921264
4424.865156
4425.268547
4426.510148
4430.955904
4428.055176
4428.071282
4424.233053
4428.871814
4431.915535
4416.982223
4442.022934
4428.346864
4438.215928
4418.246144
4437.299569
4430.231925
4425.432192
4396.260001
4435.392524
4438.359933
4436.007041
4405.612044
4398.152473
4427.609364
4428.741236
4426.831253
4426.242159
4426.668702
4428.552503
4428.684062
4432.712691
4430.623935
4431.117667
4426.391368
4425.153213
4423.799949
4426.202244
4424.264078
4432.990543
4422.673080
4435.921921
4412.668021
4423.481810
4450.759367
4420.722425
4426.265247
4415.680032
4463.496284
4430.184922
4424.776029
4426.750653
4404.964735
4434.116925
4429.584673
4427.763483
4429.099560
4429.754786
4430.885620
4428.687780
4428.397551
4426.322078
4426.293718
4426.718909
4424.604997
4426.671823
4430.964262
4429.771847
4427.110959
4425.677434
4404.711479
4409.434838
4429.649707
4431.138554
4386.975058
4427.214245
4442.876943
4429.114130
4454.346224
4431.439462
4448.481251
4407.749313
4426.902035
4419.349627
4418.109762
4412.291436
4427.923125
4428.613428
4427.008277
4425.816133
4426.728913
4427.624559
4429.550949
4431.986560
4431.052451
4430.568419
4427.455201
4423.385742
4424.890201
4424.986933
4425.398842
4443.010645
4438.696949
4445.812169
4452.356666
4392.267850
4414.610115
4442.365549
4379.302332
4464.546455
4465.300038
4444.843685
4368.021751
4437.721676
4438.459697
4414.130126
4429.532228
4427.793420
4428.487556
4430.234873
4429.819638
4429.803333
4427.209757
4427.540527
4425.452517
4427.501933
4423.665047
4426.430590
4431.630360
4428.295427
4426.079508
4427.561811
4441.925473
4425.703657
4419.605980
4456.011081
4389.081455
4434.553180
4431.986516
4432.428239
4449.962469
4448.317246
4462.817071
4402.910978
4421.134591
4429.387535
4362.029624
4432.445663
4427.683781
4428.934408
4426.804636
4426.344122
4425.636157
4428.851491
4428.711140
4432.480126
4431.462537
4431.393975
4426.885835
4423.945330
4423.489793
4424.036652
4424.735772
4424.775984
4429.929839
4417.870768
4381.319721
4431.016323
4444.223471
4438.879894
4428.434183
4416.520467
4452.979279
4404.196547
4418.909665
4397.502915
4429.750468
4409.831588
4444.679526
4427.438105
4429.566534
4428.488893
4431.776733
4429.123162
4428.748245
4426.851050
4428.002610
4425.833495
4424.398282
4426.905437
4430.395143
4428.047215
4427.276372
4423.287434
4422.277044
4423.356160
4427.201997
4429.868121
4457.973392
4411.700782
4418.727949
4471.297464
4412.591496
4454.220716
4402.369865
4387.168445
4474.336617
4422.819052
4572.269058
4410.531487
4427.438112
4428.903675
4427.427465
4426.072196
4426.089659
4428.875214
4427.789367
4433.716116
4430.288297
4431.056455
4426.155532
4425.747383
4422.710793
4425.577068
4422.394533
4437.792377
4437.263162
4429.613726
4416.870300
4463.472118
4460.816441
4439.658342
4440.276612
4463.997391
4450.874715
4441.066499
4449.684523
4447.081853
4433.816514
4274.064997
4427.675676
4427.812081
4429.893981
4428.577234
4432.395140
4428.223010
4429.371128
4425.256754
4428.425147
4423.940933
4425.839808
4425.398282
4429.985673
4426.761323
4427.615358
4420.902843
4424.920336
4403.285367
4408.895466
4425.422186
4447.328741
4416.254660
4440.263899
4442.903794
4435.271188
4416.961700
4409.434605
4431.418074
4451.310837
4447.356533
4378.138437
4398.742978