# vtk DataFile Version 2.0
mfree iwf
ASCII

DATASET UNSTRUCTURED_GRID
POINTS 11655 float
-0.000000 0.000445 0.000000
0.000000 0.000450 0.000000
-0.000000 0.000455 0.000000
-0.000000 0.000460 0.000000
-0.000000 0.000465 0.000000
-0.000000 0.000470 0.000000
-0.000000 0.000475 0.000000
-0.000000 0.000480 0.000000
0.000000 0.000485 0.000000
0.000000 0.000490 0.000000
-0.000000 0.000496 0.000000
0.000002 0.000500 0.000000
0.001118 0.000995 0.000000
0.001127 0.000994 0.000000
0.001171 0.000976 0.000000
0.001175 0.000973 0.000000
0.001175 0.000973 0.000000
0.001182 0.000970 0.000000
0.001188 0.000966 0.000000
0.001184 0.000969 0.000000
0.001197 0.000962 0.000000
0.001220 0.000949 0.000000
0.001225 0.000944 0.000000
0.001228 0.000941 0.000000
0.001231 0.000937 0.000000
0.001234 0.000933 0.000000
0.001238 0.000929 0.000000
0.001241 0.000925 0.000000
0.001243 0.000922 0.000000
0.001247 0.000917 0.000000
0.001251 0.000912 0.000000
0.001270 0.000900 0.000000
0.000005 0.000445 0.000000
0.000005 0.000450 0.000000
0.000005 0.000455 0.000000
0.000005 0.000460 0.000000
0.000005 0.000465 0.000000
0.000005 0.000470 0.000000
0.000005 0.000475 0.000000
0.000005 0.000480 0.000000
0.000005 0.000485 0.000000
0.000006 0.000490 0.000000
0.000003 0.000496 0.000000
0.000006 0.000499 0.000000
0.001166 0.000977 0.000000
0.001169 0.000968 0.000000
0.001202 0.000957 0.000000
0.001208 0.000954 0.000000
0.001213 0.000951 0.000000
0.001215 0.000949 0.000000
0.001217 0.000947 0.000000
0.001220 0.000943 0.000000
0.001222 0.000939 0.000000
0.001227 0.000935 0.000000
0.001232 0.000929 0.000000
0.001236 0.000925 0.000000
0.001238 0.000919 0.000000
0.001245 0.000913 0.000000
0.001247 0.000909 0.000000
0.001252 0.000905 0.000000
0.001262 0.000901 0.000000
0.001264 0.000899 0.000000
0.001259 0.000903 0.000000
0.001267 0.000898 0.000000
0.000010 0.000445 0.000000
0.000011 0.000450 0.000000
0.000009 0.000455 0.000000
0.000011 0.000460 0.000000
0.000010 0.000465 0.000000
0.000010 0.000469 0.000000
0.000010 0.000475 0.000000
0.000011 0.000479 0.000000
0.000009 0.000486 0.000000
0.000012 0.000489 0.000000
0.000008 0.000497 0.000000
0.000011 0.000498 0.000000
0.001165 0.000973 0.000000
0.001172 0.000966 0.000000
0.001188 0.000962 0.000000
0.001195 0.000959 0.000000
0.001199 0.000957 0.000000
0.001204 0.000954 0.000000
0.001195 0.000952 0.000000
0.001202 0.000948 0.000000
0.001208 0.000946 0.000000
0.001213 0.000942 0.000000
0.001221 0.000936 0.000000
0.001226 0.000931 0.000000
0.001225 0.000924 0.000000
0.001230 0.000922 0.000000
0.001233 0.000921 0.000000
0.001242 0.000914 0.000000
0.001254 0.000903 0.000000
0.001256 0.000901 0.000000
0.001260 0.000895 0.000000
0.001261 0.000889 0.000000
0.000014 0.000445 0.000000
0.000016 0.000450 0.000000
0.000014 0.000455 0.000000
0.000017 0.000460 0.000000
0.000015 0.000469 0.000000
0.000015 0.000464 0.000000
0.000014 0.000476 0.000000
0.000017 0.000480 0.000000
0.000014 0.000485 0.000000
0.000016 0.000489 0.000000
0.000014 0.000495 0.000000
0.000016 0.000497 0.000000
0.000025 0.000500 0.000000
0.001176 0.000966 0.000000
0.001190 0.000960 0.000000
0.001185 0.000957 0.000000
0.001198 0.000951 0.000000
0.001208 0.000951 0.000000
0.001208 0.000943 0.000000
0.001216 0.000937 0.000000
0.001211 0.000937 0.000000
0.001217 0.000933 0.000000
0.001224 0.000919 0.000000
0.001228 0.000928 0.000000
0.001233 0.000914 0.000000
0.001238 0.000914 0.000000
0.001237 0.000909 0.000000
0.001242 0.000908 0.000000
0.001246 0.000902 0.000000
0.001250 0.000899 0.000000
0.001253 0.000896 0.000000
0.001259 0.000887 0.000000
0.000019 0.000445 0.000000
0.000021 0.000450 0.000000
0.000018 0.000455 0.000000
0.000022 0.000458 0.000000
0.000019 0.000469 0.000000
0.000024 0.000467 0.000000
0.000018 0.000474 0.000000
0.000022 0.000479 0.000000
0.000019 0.000486 0.000000
0.000021 0.000490 0.000000
0.000020 0.000497 0.000000
0.000022 0.000499 0.000000
0.000039 0.000500 0.000000
0.001171 0.000955 0.000000
0.001179 0.000959 0.000000
0.001185 0.000951 0.000000
0.001191 0.000956 0.000000
0.001201 0.000944 0.000000
0.001200 0.000940 0.000000
0.001212 0.000932 0.000000
0.001202 0.000938 0.000000
0.001214 0.000927 0.000000
0.001213 0.000919 0.000000
0.001218 0.000914 0.000000
0.001224 0.000913 0.000000
0.001232 0.000908 0.000000
0.001237 0.000899 0.000000
0.001243 0.000899 0.000000
0.001246 0.000896 0.000000
0.001253 0.000890 0.000000
0.001256 0.000892 0.000000
0.001256 0.000884 0.000000
0.000024 0.000445 0.000000
0.000026 0.000450 0.000000
0.000024 0.000456 0.000000
0.000026 0.000462 0.000000
0.000021 0.000465 0.000000
0.000025 0.000472 0.000000
0.000023 0.000476 0.000000
0.000027 0.000481 0.000000
0.000023 0.000485 0.000000
0.000026 0.000488 0.000000
0.000026 0.000493 0.000000
0.000027 0.000500 0.000000
0.001147 0.000987 0.000000
0.001179 0.000962 0.000000
0.001183 0.000962 0.000000
0.001196 0.000946 0.000000
0.001191 0.000946 0.000000
0.001208 0.000938 0.000000
0.001205 0.000932 0.000000
0.001196 0.000940 0.000000
0.001203 0.000929 0.000000
0.001220 0.000929 0.000000
0.001218 0.000921 0.000000
0.001220 0.000925 0.000000
0.001229 0.000917 0.000000
0.001229 0.000912 0.000000
0.001241 0.000903 0.000000
0.001236 0.000904 0.000000
0.001248 0.000892 0.000000
0.001241 0.000893 0.000000
0.001249 0.000887 0.000000
0.001251 0.000881 0.000000
0.000030 0.000445 0.000000
0.000031 0.000450 0.000000
0.000029 0.000455 0.000000
0.000031 0.000460 0.000000
0.000031 0.000464 0.000000
0.000028 0.000468 0.000000
0.000031 0.000472 0.000000
0.000031 0.000477 0.000000
0.000031 0.000486 0.000000
0.000031 0.000492 0.000000
0.000033 0.000497 0.000000
0.000030 0.000499 0.000000
0.000048 0.000500 0.000000
0.001168 0.000962 0.000000
0.001180 0.000950 0.000000
0.001189 0.000950 0.000000
0.001185 0.000946 0.000000
0.001190 0.000943 0.000000
0.001197 0.000932 0.000000
0.001209 0.000921 0.000000
0.001209 0.000928 0.000000
0.001213 0.000924 0.000000
0.001221 0.000918 0.000000
0.001222 0.000904 0.000000
0.001226 0.000909 0.000000
0.001228 0.000904 0.000000
0.001232 0.000895 0.000000
0.001232 0.000901 0.000000
0.001238 0.000889 0.000000
0.001244 0.000889 0.000000
0.001247 0.000884 0.000000
0.001249 0.000878 0.000000
0.000035 0.000445 0.000000
0.000035 0.000450 0.000000
0.000034 0.000456 0.000000
0.000038 0.000454 0.000000
0.000035 0.000467 0.000000
0.000036 0.000472 0.000000
0.000031 0.000479 0.000000
0.000041 0.000478 0.000000
0.000034 0.000483 0.000000
0.000034 0.000488 0.000000
0.000037 0.000491 0.000000
0.000036 0.000498 0.000000
0.001105 0.000996 0.000000
0.001143 0.000988 0.000000
0.001176 0.000953 0.000000
0.001180 0.000944 0.000000
0.001193 0.000935 0.000000
0.001184 0.000934 0.000000
0.001200 0.000933 0.000000
0.001198 0.000926 0.000000
0.001205 0.000925 0.000000
0.001196 0.000918 0.000000
0.001204 0.000910 0.000000
0.001218 0.000905 0.000000
0.001220 0.000909 0.000000
0.001224 0.000901 0.000000
0.001236 0.000894 0.000000
0.001227 0.000884 0.000000
0.001239 0.000884 0.000000
0.001241 0.000884 0.000000
0.001244 0.000880 0.000000
0.001244 0.000874 0.000000
0.000040 0.000445 0.000000
0.000041 0.000450 0.000000
0.000036 0.000461 0.000000
0.000040 0.000458 0.000000
0.000042 0.000463 0.000000
0.000039 0.000468 0.000000
0.000041 0.000473 0.000000
0.000037 0.000477 0.000000
0.000041 0.000488 0.000000
0.000042 0.000491 0.000000
0.000041 0.000497 0.000000
0.000044 0.000498 0.000000
0.000954 0.000957 0.000000
0.001165 0.000969 0.000000
0.001167 0.000958 0.000000
0.001175 0.000940 0.000000
0.001190 0.000938 0.000000
0.001192 0.000930 0.000000
0.001188 0.000935 0.000000
0.001202 0.000922 0.000000
0.001208 0.000914 0.000000
0.001213 0.000915 0.000000
0.001205 0.000917 0.000000
0.001206 0.000901 0.000000
0.001217 0.000899 0.000000
0.001223 0.000894 0.000000
0.001227 0.000898 0.000000
0.001227 0.000893 0.000000
0.001232 0.000890 0.000000
0.001234 0.000882 0.000000
0.001240 0.000877 0.000000
0.001241 0.000871 0.000000
0.000044 0.000445 0.000000
0.000047 0.000450 0.000000
0.000044 0.000455 0.000000
0.000046 0.000460 0.000000
0.000044 0.000467 0.000000
0.000047 0.000474 0.000000
0.000046 0.000479 0.000000
0.000040 0.000483 0.000000
0.000051 0.000485 0.000000
0.000045 0.000483 0.000000
0.000048 0.000493 0.000000
0.000050 0.000498 0.000000
0.000960 0.000961 0.000000
0.001162 0.000979 0.000000
0.001181 0.000954 0.000000
0.001184 0.000940 0.000000
0.001180 0.000938 0.000000
0.001191 0.000926 0.000000
0.001193 0.000922 0.000000
0.001198 0.000921 0.000000
0.001199 0.000910 0.000000
0.001209 0.000908 0.000000
0.001214 0.000910 0.000000
0.001218 0.000895 0.000000
0.001212 0.000898 0.000000
0.001219 0.000891 0.000000
0.001227 0.000889 0.000000
0.001231 0.000885 0.000000
0.001229 0.000880 0.000000
0.001234 0.000877 0.000000
0.001237 0.000874 0.000000
0.001237 0.000868 0.000000
0.000049 0.000445 0.000000
0.000053 0.000450 0.000000
0.000049 0.000454 0.000000
0.000053 0.000455 0.000000
0.000048 0.000465 0.000000
0.000049 0.000471 0.000000
0.000053 0.000467 0.000000
0.000051 0.000477 0.000000
0.000047 0.000488 0.000000
0.000052 0.000491 0.000000
0.000057 0.000492 0.000000
0.000053 0.000498 0.000000
0.001048 0.000993 0.000000
0.001152 0.000976 0.000000
0.001163 0.000965 0.000000
0.001175 0.000944 0.000000
0.001180 0.000932 0.000000
0.001187 0.000929 0.000000
0.001182 0.000925 0.000000
0.001187 0.000923 0.000000
0.001194 0.000913 0.000000
0.001201 0.000915 0.000000
0.001197 0.000909 0.000000
0.001209 0.000905 0.000000
0.001207 0.000893 0.000000
0.001214 0.000904 0.000000
0.001217 0.000888 0.000000
0.001220 0.000880 0.000000
0.001222 0.000885 0.000000
0.001229 0.000874 0.000000
0.001232 0.000870 0.000000
0.001233 0.000865 0.000000
0.000054 0.000445 0.000000
0.000058 0.000450 0.000000
0.000054 0.000459 0.000000
0.000051 0.000462 0.000000
0.000060 0.000466 0.000000
0.000053 0.000473 0.000000
0.000058 0.000476 0.000000
0.000056 0.000481 0.000000
0.000052 0.000483 0.000000
0.000057 0.000486 0.000000
0.000056 0.000497 0.000000
0.000059 0.000496 0.000000
0.001071 0.000995 0.000000
0.001161 0.000980 0.000000
[...]
POINT_DATA 11655
SCALARS density float 1
LOOKUP_TABLE default
4428.678752
4432.658599
4424.596177
4425.937836
4431.279237
4426.784562
4430.115836
4430.572232
4430.933397
4419.174383
4431.659249
4406.088321
4429.897897
4419.179034
4415.987654
4441.285904
4442.189236
4437.952848
4444.081748
4450.920773
4420.611715
4430.330411
4401.891735
4438.484985
4429.717454
4423.127363
4450.015641
4420.716679
4417.921664
4446.568546
4423.751931
4406.494885
4428.234695
4430.518490
4426.099581
4430.187871
4433.359275
4424.419704
4433.362924
4426.318759
4419.712194
4432.844159
4448.939179
4408.783705
4411.593585
4423.222877
4423.113536
4411.456128
4423.256022
4437.012296
4446.243814
4448.749667
4437.468253
4434.333938
4413.161463
4393.015007
4434.873781
4395.130156
4432.656054
4458.959619
4422.509257
4438.175716
4404.277092
4406.745802
4420.527482
4421.727023
4448.227659
4414.901406
4429.377510
4415.803237
4450.104816
4391.753090
4463.169974
4389.164782
4446.690887
4401.522391
4462.962086
4448.894573
4418.539845
4407.776322
4430.501456
4408.197281
4436.901093
4431.984518
4434.365349
4382.375888
4420.572323
4419.312755
4400.065532
4449.364349
4449.938677
4397.389688
4423.395130
4432.734784
4445.548342
4406.005703
4424.884523
4439.888004
4438.368281
4413.741870
4427.404311
4449.373767
4461.215716
4388.977973
4471.666587
4374.552851
4508.103155
4403.464996
4435.493723
4373.148995
4430.444610
4449.261223
4456.133521
4457.116673
4396.281707
4402.945950
4464.843193
4421.771727
4437.950961
4443.470670
4401.982086
4475.709673
4422.696195
4475.215613
4437.885098
4357.627919
4488.227056
4443.152291
4438.825772
4428.878174
4429.186425
4451.659221
4399.987486
4453.362196
4422.644617
4443.321136
4473.476535
4380.336413
4468.010611
4434.366712
4417.945315
4418.475202
4469.356440
4445.556505
4460.754778
4439.794947
4452.732358
4401.603780
4416.414075
4415.540379
4435.425958
4424.014108
4414.840898
4429.689061
4419.485858
4461.737978
4458.962232
4414.507081
4391.347461
4416.004573
4436.169395
4442.634518
4436.144427
4402.284892
4434.089968
4415.894177
4462.250960
4367.303000
4430.795618
4468.638760
4413.363430
4424.692188
4438.361762
4430.321543
4391.332800
4404.953305
4462.798586
4460.588172
4386.242643
4410.557594
4483.763033
4455.022040
4407.186879
4448.310509
4425.115370
4470.293414
4385.787142
4438.750346
4409.688990
4423.349067
4477.597550
4417.136061
4418.373575
4432.516232
4406.901072
4442.968194
4441.491876
4445.265597
4387.395695
4455.565837
4450.980240
4413.303081
4455.239348
4418.620025
4422.759778
4444.584323
4456.366300
4396.999182
4416.903522
4429.927209
4423.107984
4418.826276
4454.603773
4451.281139
4452.362306
4451.622168
4426.232519
4393.536510
4410.066584
4452.535932
4418.945191
4386.930702
4414.491087
4443.626207
4429.460050
4428.430686
4441.238617
4429.696055
4431.784435
4435.470518
4449.401587
4424.194807
4392.088958
4430.287492
4414.162142
4444.957534
4416.154153
4424.068387
4413.542831
4422.366236
4442.334183
4446.163949
4452.213026
4400.036944
4395.570359
4428.452282
4401.563729
4465.924096
4404.947797
4447.559824
4448.546553
4452.058443
4453.684798
4460.799496
4399.852598
4414.643019
4433.922353
4421.827433
4402.086002
4442.899378
4437.271257
4440.705244
4428.964549
4422.278813
4447.741940
4430.170944
4433.494651
4425.520175
4427.992150
4454.904960
4391.456886
4428.487173
4452.606125
4443.144902
4421.676482
4433.576362
4417.239165
4428.931244
4448.465099
4396.667262
4407.044090
4425.526102
4431.180968
4431.383204
4426.958616
4384.862619
4433.885981
4437.334295
4429.187267
4423.609360
4421.312078
4432.899524
4400.827170
4449.032752
4425.525042
4442.851462
4458.064717
4413.842165
4468.212679
4430.357883
4433.868656
4441.931564
4392.915211
4405.779523
4434.858097
4458.835765
4431.954673
4460.240223
4457.830639
4454.546238
4427.897349
4433.668540
4454.317261
4447.759857
4424.062653
4436.871171
4441.735089
4419.497581
4443.714194
4427.431357
4422.401980
4425.752532
4444.363227
4406.250167
4433.990626
4443.143143
4423.179728
4384.884641
4390.786784
4421.398656
4537.345006
4405.289918
4443.550517
4431.552634
4388.643303
4454.996535
4444.726476
4388.547433
4461.151241
4422.298377
4410.041188
4413.835712
4443.856199
4445.171919
4392.753353
4395.086328
4449.073562
4434.208142
4399.378255
4438.716400
4413.052837
4430.807171
4445.226446
4422.365654
4442.644586
4418.639098
4423.513633
4440.753293
4427.268225
4447.349625
4474.996468
4343.522981
4409.447610
4393.544218
4428.558614
4429.531721
4423.170115
4415.275501
4448.208083
4425.160233
4397.104494
4447.762203
4432.704649
4386.627594
4450.169629
4427.511024
4459.634328
4400.467612
4463.031505
4403.348451
4415.506908
4431.615760
4433.998398
4425.294718
4428.582924
4426.967356
4431.628684
4404.255820
4421.234413
4452.593469
4425.828951
4448.872520
4459.016789
4424.058896
4444.957456
4442.020922
4412.207904
4427.643165
4431.670478
4382.225074
4387.413685
4423.543741
4446.754648
4408.491166
4452.153135
4424.686329
4449.022844
4422.225885
4385.473218
4452.303300
4435.965848
4399.678373
4437.763165
4441.325415
4437.909346
4432.756794
4438.126341
4437.881506
4445.038333
4412.719186
4427.360033
4428.248189
4378.816584
4414.787029
4432.953723
4381.823201
4443.522752
4454.641879
4419.327532
4431.017507
4412.386332
4387.306499
4432.009310
4377.372647
4438.429025
4434.419528
4436.734888
4453.395764
4455.858322
4447.940518
4399.832339
4465.275473
4423.612447
4391.310027
4422.165974
4441.617473
4414.979279
4436.121769
4411.928141
4419.971344
4435.566761
4457.726025
4434.397810
4439.016460
4449.036846
4403.723845
4389.648765
4442.642918
4443.637584
4453.179506
4428.866412
4441.482935
4425.674224
4469.894256
4445.836369
4459.701660
4452.514322
4438.533105
4395.671130
4418.693146
4429.894418
4429.750207
4465.070673
4418.830467
4421.044414
4430.772655
4444.717578
4421.278651
4427.666304
4433.684997
4443.524352
4401.074168
4427.204693
4394.919637
4415.831421
4393.595068
4465.111468
4420.384448
4447.648661
4382.924084
4383.043813
4458.307876
4433.894539
4424.641181
4430.822258
4452.357897
4447.829086
4409.478334
4417.767824
4425.289235
4388.608202
4418.826908
4422.054436
4460.565388
4367.878433
4458.992969
4394.626553
4437.379418
4438.805165
4405.379824
4441.810589
4418.956228
4427.425111
4439.084008
4441.171624
4439.837596
4451.140097
4416.207815
4415.197241
4450.559600
4426.477546
4393.006620
4416.271779
4426.332960
4423.039313
4420.117630
4432.641486
4436.144440
4474.581247
4441.423116
4422.605678
4428.621439
4419.017474
4456.568196
4444.056407
4412.573267
4425.363085
4398.114616
4428.867012
4446.104769
4408.519249
4444.113364
4433.317280
4442.361537
4442.858338
4438.423079
4449.802274
4430.203296
4420.655983
4433.211454
4422.554857
4436.944359
4379.365601
4506.687220
4429.997921
4460.165947
4431.350885
4427.178115
4439.106882
4434.575832
4463.403916
4433.285559
4485.185936
4495.820967
4440.499623
4444.426195
4421.602661
4449.198005
4439.431736
4441.066749
4398.263570
4417.342706
4440.292548
4448.412852
4414.806306
4432.508971
4419.165563
4432.884234
4411.225515
4413.976805
4443.010852
4426.592385
4451.594186
4445.795821
4452.271110
4435.463101
4385.188586
4427.054443
4417.207876
4422.382979
4434.245955
4448.648351
4423.379402
4429.582407
4431.098203
4434.037944
4443.569173
4454.033041
4420.912430
4412.961083
4419.115601
4411.214279
4452.133725
4445.143519
4440.034980
4402.168760
4431.988414
4427.847734
4455.012373
4408.481550
4441.692841
4440.840786
4426.897304
4406.764461
4446.214669
4418.061857
4421.454642
4443.879026
4424.827193
4433.205172
4409.266265
4444.149817
4439.469011
4469.384776
4423.412210
4439.434512
4434.030675
4434.712002
4489.237093
4420.895988
4461.976416
4435.236354
4410.852187
4393.560850
4451.426145
4415.348196
4412.626301
4438.921084
4447.192627
4434.185362
4430.188049
4438.789325
4444.627934
4415.532317
4435.766890
4452.577088
4409.213295
4403.109958
4459.743202
4464.478214
4399.225162
4507.103199
4425.161332
4417.130858
4427.973279
4479.302981
4439.832150
4418.552733
4356.406761
4429.029756
4387.044822
4463.374747
4493.619498
4428.856708
4465.990502
4458.174615
4413.331728
4448.881525
4447.754249
4440.402317
4402.217783
4435.617811
4437.994856
4417.650104
4432.953896
4436.381402
4452.913661
4430.501734
4454.869369
4438.590654
4449.995089
4352.204294
4432.512553
4428.530270
4432.665334
4421.896611
4434.284818
4451.726532
4448.541530
4407.377745
4442.917056
4433.725541
4393.981914
4353.428647
4446.800920
4402.622367
4430.748752
4418.620374
4411.602530
4417.102771
4435.218495
4427.556075
4434.782182
4434.216615
4414.043713
4427.841591
4396.066137
4419.899487
4436.525851
4407.141363
4440.577883
4411.716676
4459.031160
4382.364135
4400.503727
4453.544733
4428.749861
4463.037814
4381.375631
4445.149562
4435.070943
4440.946586
4426.684393
4460.007664
4438.553706
4353.611328
4366.397512
4443.491772
4382.610060
4404.329713
4422.732989
4450.250097
4427.066541
4424.165160
4414.762158
4416.579882
4436.034371
4433.853413
4457.373528
4427.208750
4426.975116
4438.629851
4409.746330
4440.308838
4462.775672
4455.170828
4454.278640
4428.453234
4460.073637
4421.559641
4436.786517
4380.085614
4355.145187
4414.492336
4396.403811
4418.650279
4375.975512
4447.892128
4442.201202
4468.768035
4448.840048
4436.052994
4438.198343
4436.568147
4460.463861
4403.645447
4455.626839
4424.041258
4428.146729
4430.405253
4430.583626
4430.665848
4430.470009
4429.929244
4429.550717
4429.107150
4429.307581
4430.005878
4431.096330
4431.563682
4431.354595
4430.639132
4430.226294
4428.794757
4429.896678
4428.725033
4428.732934
4429.517743
4430.588935
4432.059481
4433.172784
4433.353937
4431.793148
4429.615610
4428.171694
4428.492120
4430.103858
4431.492401
4429.241382
4430.113343
4431.255533
4431.559427
4431.095988
4429.707463
4428.453791
4426.845758
4426.961731
4428.495001
4431.377186
4432.937785
4432.060273
4430.560356
4428.399620
4429.600132
4429.660929
4428.387904
4428.178243
4428.810079
4430.283583
4431.745517
4433.685754
4433.561984
4432.037946
4428.920037
4426.940235
4426.780375
4428.612050
4430.100807
4429.750028
4429.925046
4431.272744
4431.655725
4430.985308
4429.687287
4428.093245
4426.232998
4426.285068
4427.756039
4431.005750
4432.501464
4432.957421
4429.039498
4430.063189
4429.642246
4429.467202
4428.469958
4427.572177
4429.003194
4429.557888
4431.987771
4432.908982
4433.981988
4431.052413
4429.277462
4425.978713
4427.366616
4428.426758
4430.211043
4429.821285
4429.681014
4431.421023
4431.417827
4430.960915
4429.435882
4427.879542
4425.975843
4425.945664
4427.555096
4430.418937
4432.652621
4431.335354
4428.894510
4427.003509
4429.517868
4429.400422
4428.342249
4427.583238
4428.539362
4429.718691
4431.369448
4433.113840
4433.322032
4431.346449
4428.654739
4425.868345
4427.071955
4427.290555
4429.412107
4429.172356
4429.907172
4430.884186
4431.405741
4430.927113
4429.046453
4427.955639
4425.500983
4426.095009
4426.960566
4430.638168
4432.573346
4432.547864
4429.740901
4431.169627
4429.350002
4429.371439
4428.127386
4427.543109
4428.224853
4429.694325
4430.959500
4433.013130
4432.968172
4431.241686
4428.610207
4425.722301
4427.827013
4429.541378
4428.955526
4429.252416
4429.799499
4430.782904
4431.490873
4430.358045
4429.326900
4427.102451
4425.946310
4425.486576
4427.122076
4429.877558
4433.082616
4430.515303
4429.792684
4427.401839
4429.185210
4429.366151
4427.895578
4427.317508
4428.056458
4429.308814
4430.901547
4432.635929
4432.921563
4431.101056
4428.171012
4425.653640
4427.122570
4427.498572
4428.713998
4429.013807
4429.481045
4430.795545
4431.180107
4430.325490
4428.902559
4427.233179
4425.526385
4425.741645
4426.493583
4430.192396
4432.440448
4432.029818
4429.289100
4430.604362
4451.095103
4438.578483
4413.843284
4426.566269
4419.643477
4446.178944
4424.157021
4415.555021
4404.665988
4460.958204
4462.247257
4402.963115
4438.554444
4463.131947
4430.797784
4425.231298
4428.900597
4429.095010
4428.031378
4426.640686
4428.230899
4428.800259
4430.829766
4432.328901
4432.645708
4430.760009
4428.246744
4425.291671
4427.787708
4429.313226
4430.526383
4433.851145
4422.033982
4423.165065
4428.854060
4420.066509
4434.252359
4437.685981
4433.695375
4400.390541
4398.342084
4415.467883
4431.106419
4433.024938
4374.377129
4416.561388
4411.094814
4428.580602
4429.391274
4430.507944
4431.074349
4430.147071
4428.553658
4427.320799
4425.089596
4425.991993
4425.978134
4429.641131
4432.449944
4431.074733
4429.091598
4429.761458
4438.123096
4438.695818
4448.007300
4422.438603
4406.687625
4446.592302
4408.794961
4425.245874
4409.728952
4430.239167
4436.870005
4440.344822
4436.315045
4428.753456
4444.133614
4423.840937
4428.696641
4429.206128
4427.559949
4426.855271
4427.474624
4429.270023
4429.866097
4432.759069
4431.416338
4431.081915
4427.637753
4424.462453
4426.998736
4426.288195
4428.753929
4431.388092
4438.667153
4416.481853
4387.350167
4392.566781
4446.617267
4438.514175
4422.958015
4437.360484
4457.464865
4434.642760
4439.014599
4365.333506
4396.815841
4442.335358
4452.156478
4428.340350
4429.475743
4430.121431
4431.068453
4429.954837
4428.510532
4426.972878
4425.187938
4425.608912
4425.667458
4428.760491
4432.508659
4429.419256
4427.688284
4427.389719
4452.809329
4402.457885
4427.592655
4447.655398
4445.086063
4436.282888
4437.821587
4462.235694
4422.879137
4435.274911
4386.288157
4447.329159
4412.492431
4417.778152
4432.055876
4421.684294
4428.217956
4429.077769
4427.410631
4426.768911
4427.215998
4429.219266
4429.683112
4432.349231
4431.312212
4430.529125
4427.585403
4424.162473
4426.289727
4427.698965
4425.248226
4434.661190
4420.460697
4409.035644
4411.902519
4470.592561
4394.777044
4426.299570
4436.976869
4442.549217
4395.352182
4394.593996
4414.668029
4424.867186
4422.523926
4448.559738
4417.867278
4428.323008
4429.493512
4429.851951
4431.157239
4429.627350
4428.689491
4426.402632
4425.639626
4425.287044
4425.740849
4428.080060
4432.610720
4428.722908
4428.325493
4428.303664
4427.965409
4460.855658
4468.400919
4420.884125
4356.124058
4439.967808
4432.399575
4431.224534
4417.323684
4442.600809
4433.709665
4459.992486
4444.650091
4413.814317
4488.481941
4410.834638
4427.957795
4428.979209
4427.247351
4426.560109
4426.983654
4428.929245
4429.445522
4432.274319
4430.974595
4430.657997
4427.543649
4424.208711
4427.100663
4426.658406
4426.437011
4401.206922
4461.408025
4425.059314
4386.346713
4394.343582
4484.156806
4422.724155
4423.828958
4433.623482
4424.930262
4440.865660
4387.680357
4461.772910
4388.654225
4436.258629
4421.499791
4428.076633
4429.123905
4429.976051
4430.715825
4429.782613
4428.090779
4426.726205
4425.287740
4426.206356
4424.973836
4428.475586
4432.430240
4429.341345
4428.515532
4426.243932
4434.704634
4427.753592
4418.673201
4410.358449
4435.499687
4437.951561
4423.219739
4418.002903
4488.443059
4438.109396
4428.356383
4407.905190
4460.887137
4448.895423
4399.977286
4400.935573
4427.941528
4428.576563
4427.533236
4425.968299
4427.227134
4428.212538
4429.717355
4431.751092
4431.168516
4430.448815
4427.442623
4424.276312
4426.473228
4426.377065
4427.324389
4447.682911
4426.578784
4419.043749
4484.362810
4370.655002
4418.095194
4422.663230
4436.745720
4392.560203
4462.878359
4452.017182
4448.081293
4403.670713
4430.010194
4413.157552
4441.641237
4427.881956
4428.953240
4429.837123
4430.554398
4429.757571
4427.909481
4426.648878
4425.634141
4426.208599
4424.732634
4428.081894
4432.211646
4430.004235
4427.913444
4427.623303
4412.924400
4442.989463
4400.436413
4455.068871
4456.072051
4434.512337
4447.375096
4481.604759
4423.770139
4457.071886
4427.106766
4448.219553
4466.341788
4403.561378
4462.334979
4402.831325
4427.774170
4428.740908
4427.126989
4426.426144
4426.365662
4428.735845
4429.027886
4431.707462
4430.979639
4430.135650
4427.211529
4423.839486
4425.234880
4425.942197
4424.737227
4429.778730
4480.005802
4446.239309
4386.405282
4427.161038
4424.607797
4426.202553
4438.595945
4453.885438
4459.125094
4462.470766
4422.471702
4422.754858
4412.494016
4417.640965
4426.163316
4427.580143
4429.270400
4429.188230
4430.787365
4429.829074
4427.836900
4426.554177
4426.213190
4425.731575
4424.906247
4427.130579
4432.114289
4428.272674
4427.173675
4424.887665
4414.394808
4425.989710
4431.644969
4425.242522
4410.923328
4438.316174
4444.074045
4433.884051
4438.611159
4398.251230
4440.877566
4450.661612
4419.585632
4417.600874
4481.315538
4441.782324
4427.461894
4428.952693
4426.840823
4426.779717
4425.844021
4429.300466
4428.352900
4432.103987
4430.286775
4430.414235
4426.588136
4424.176206
4424.686653
4425.415062
4426.157204
4419.873474
4439.725109
4406.411153
4443.489183
4453.273671
4423.264955
4426.644262
4437.220882
4416.040503
4439.914154
4416.168913
4462.468350
4424.301245
4400.682765
4396.893438
4450.503096
4427.378792
4429.518825
4428.727634
4431.397829
4429.142260
4428.368468
4425.807503
4426.950310
4425.411111
4425.258592
4426.653199
4432.032141
4428.420396
4427.846166
4424.672973
4423.541430
4430.659632
4405.792426
4456.320936
4394.072664
4431.001355
4417.277735
4444.045377
4416.313395
4433.192261
4407.595316
4413.978945
4459.602706
4451.764423
4413.461720
4399.223375
4427.577958
4428.824955
4427.083842
4426.312032
4426.306673
4428.346244
4428.702834
4432.228568
4430.062280
4430.694500
4426.893944
4424.788164
4424.222285
4425.766412
4423.869592
4436.478474
4430.864739
4418.718964
4424.388112
4424.059126
4442.836480
4418.329103
4426.835302
4429.014061
4447.862781
4454.000142
4423.217278
4440.136711
4416.722467
4425.530334
4429.412726
4427.599385
4428.988124
4429.363912
4430.884250
4429.257316
4428.179845
4426.347580
4426.533769
4426.860728
4424.860440
4426.532163
4432.085580
4429.901330
4427.323866
4426.314857
4419.493402
4418.232090
4440.393147
4444.631612
4390.821167
4429.281948
4440.321353
4409.704617
4447.163895
4428.108205
4443.738182
4375.429235
4421.313763
4437.736659
4404.835486
4413.504492
4427.917672
4428.757990
4427.259134
4426.175685
4426.267988
4427.794383
4429.214450
4431.664045
4430.546256
4429.991773
4427.945509
4423.905232
4425.211969
4425.066389
4425.939591
4444.631306
4447.090002
4437.821234
4455.480956
4385.231372
4418.024619
4439.252102
4357.386849
4470.996280
4439.810705
4441.071039
4400.965062
4449.370717
4452.637791
4402.192395
4419.586701
4427.684508
4428.567309
4429.604407
4430.135896
4430.223745
4427.132325
4427.354931
4426.119659
4427.540595
4424.146834
4426.408376
4432.537704
4428.750006
4426.551162
4426.641430
4438.197643
4422.152671
4419.899954
4460.458496
4377.275005
4434.470852
4440.142747
4432.905459
4475.407057
4461.216045
4471.651394
4424.502414
4408.239218
4451.582748
4364.830244
4421.092865
4427.716422
4429.126998
4427.090567
4426.757505
4425.351382
4429.083173
4428.409861
4431.933997
4430.889805
4430.692988
4427.045966
4424.627617
4423.815907
4423.921467
4424.866997
4432.490651
4429.580339
4412.271775
4384.658823
4422.417881
4444.465716
4431.630474
4425.753792
4379.769707
4453.354379
4420.670173
4419.316445
4417.392212
4407.417379
4420.767361
4446.842025
4427.487049
4429.386485
4428.149257
4431.747958
4429.700359
4428.374615
4426.878934
4428.346551
4426.055848
4424.479607
4427.108731
4430.972522
4428.165665
4427.591018
4423.939128
4429.451873
4428.314677
4428.522157
4434.024054
4457.930641
4421.535337
4426.986442
4473.453191
4428.404739
4419.054031
4419.380935
4396.891542
4478.145927
4417.009174
4573.415282
4410.907183
4427.625824
4428.953006
4427.884037
4426.366117
4426.142420
4428.726708
4428.053631
4432.618549
4430.228504
4430.174069
4426.690673
4426.138528
4423.736371
4425.322811
4422.097622
4425.039848
4421.234911
4439.163022
4429.281325
4464.294757
4466.103435
4439.071931
4446.482251
4487.409865
4445.167081
4445.040815
4443.375898
4447.959401
4439.214351
4271.900132
4426.785863
4427.948353
4429.576553
4428.343423
4431.922035
4429.117466
4428.634612
4425.731889
4428.725398
4424.862938
4425.773713
4426.392367
4430.225675
4427.337776
4426.859212
4421.946991
4420.553533
4414.930416
4393.852656
4405.304077
4449.100083
4412.838171
4440.724000
4441.039239
4448.041319
4412.543128
4407.867741
4444.519676
4449.411140
4421.630758
4383.750978
4402.136342