# vtk DataFile Version 2.0
mfree iwf
ASCII

DATASET UNSTRUCTURED_GRID
POINTS 8052 float
0.000002 0.000446 0.000000
0.000002 0.000451 0.000000
0.000002 0.000456 0.000000
0.000002 0.000461 0.000000
0.000002 0.000466 0.000000
0.000002 0.000471 0.000000
0.000002 0.000476 0.000000
0.000002 0.000481 0.000000
0.000002 0.000486 0.000000
0.000002 0.000491 0.000000
0.000002 0.000496 0.000000
0.000004 0.000500 0.000000
0.000011 0.000506 0.000000
0.000011 0.000511 0.000000
0.000011 0.000516 0.000000
0.000011 0.000521 0.000000
0.000011 0.000526 0.000000
0.000011 0.000531 0.000000
0.000011 0.000536 0.000000
0.000011 0.000541 0.000000
0.000011 0.000546 0.000000
0.000011 0.000551 0.000000
0.000011 0.000556 0.000000
0.000011 0.000561 0.000000
0.000011 0.000567 0.000000
0.000011 0.000572 0.000000
0.000011 0.000577 0.000000
0.000011 0.000582 0.000000
0.000011 0.000587 0.000000
0.000011 0.000592 0.000000
0.000011 0.000598 0.000000
0.000011 0.000606 0.000000
0.000007 0.000446 0.000000
0.000007 0.000451 0.000000
0.000007 0.000456 0.000000
0.000007 0.000461 0.000000
0.000007 0.000466 0.000000
0.000007 0.000471 0.000000
0.000007 0.000476 0.000000
0.000007 0.000480 0.000000
0.000007 0.000486 0.000000
0.000008 0.000490 0.000000
0.000006 0.000496 0.000000
0.000008 0.000499 0.000000
0.000016 0.000505 0.000000
0.000015 0.000513 0.000000
0.000016 0.000517 0.000000
0.000016 0.000523 0.000000
0.000016 0.000528 0.000000
0.000016 0.000533 0.000000
0.000016 0.000538 0.000000
0.000016 0.000544 0.000000
0.000016 0.000549 0.000000
0.000016 0.000554 0.000000
0.000016 0.000559 0.000000
0.000016 0.000564 0.000000
0.000016 0.000569 0.000000
0.000016 0.000574 0.000000
0.000016 0.000580 0.000000
0.000016 0.000585 0.000000
0.000016 0.000591 0.000000
0.000015 0.000596 0.000000
0.000015 0.000601 0.000000
0.000014 0.000606 0.000000
0.000011 0.000446 0.000000
0.000012 0.000450 0.000000
0.000012 0.000456 0.000000
0.000012 0.000460 0.000000
0.000012 0.000466 0.000000
0.000012 0.000470 0.000000
0.000012 0.000476 0.000000
0.000013 0.000480 0.000000
0.000012 0.000486 0.000000
0.000013 0.000491 0.000000
0.000012 0.000496 0.000000
0.000013 0.000499 0.000000
0.000019 0.000508 0.000000
0.000020 0.000511 0.000000
0.000021 0.000517 0.000000
0.000021 0.000522 0.000000
0.000021 0.000527 0.000000
0.000021 0.000532 0.000000
0.000021 0.000537 0.000000
0.000021 0.000542 0.000000
0.000021 0.000547 0.000000
0.000021 0.000553 0.000000
0.000021 0.000558 0.000000
0.000021 0.000563 0.000000
0.000021 0.000568 0.000000
0.000021 0.000573 0.000000
0.000021 0.000578 0.000000
0.000021 0.000584 0.000000
0.000020 0.000589 0.000000
0.000020 0.000595 0.000000
0.000020 0.000601 0.000000
0.000020 0.000606 0.000000
0.000016 0.000446 0.000000
0.000017 0.000450 0.000000
0.000016 0.000456 0.000000
0.000017 0.000460 0.000000
0.000017 0.000466 0.000000
0.000017 0.000470 0.000000
0.000017 0.000475 0.000000
0.000018 0.000480 0.000000
0.000017 0.000486 0.000000
0.000018 0.000490 0.000000
0.000018 0.000496 0.000000
0.000019 0.000500 0.000000
0.000022 0.000504 0.000000
0.000025 0.000512 0.000000
0.000025 0.000518 0.000000
0.000026 0.000523 0.000000
0.000026 0.000528 0.000000
0.000026 0.000533 0.000000
0.000026 0.000539 0.000000
0.000026 0.000544 0.000000
0.000026 0.000549 0.000000
0.000026 0.000554 0.000000
0.000026 0.000559 0.000000
0.000026 0.000564 0.000000
0.000026 0.000570 0.000000
0.000026 0.000575 0.000000
0.000025 0.000580 0.000000
0.000025 0.000586 0.000000
0.000025 0.000591 0.000000
0.000024 0.000596 0.000000
0.000025 0.000601 0.000000
0.000025 0.000606 0.000000
0.000021 0.000445 0.000000
0.000022 0.000450 0.000000
0.000022 0.000455 0.000000
0.000022 0.000460 0.000000
0.000022 0.000465 0.000000
0.000022 0.000470 0.000000
0.000022 0.000475 0.000000
0.000022 0.000480 0.000000
0.000023 0.000485 0.000000
0.000022 0.000490 0.000000
0.000023 0.000495 0.000000
0.000024 0.000500 0.000000
0.000027 0.000506 0.000000
0.000029 0.000511 0.000000
0.000030 0.000517 0.000000
0.000030 0.000522 0.000000
0.000030 0.000528 0.000000
0.000031 0.000533 0.000000
0.000031 0.000538 0.000000
0.000031 0.000543 0.000000
0.000031 0.000548 0.000000
0.000031 0.000553 0.000000
0.000031 0.000559 0.000000
0.000031 0.000564 0.000000
0.000030 0.000569 0.000000
0.000030 0.000574 0.000000
0.000030 0.000580 0.000000
0.000030 0.000585 0.000000
0.000030 0.000590 0.000000
0.000030 0.000596 0.000000
0.000030 0.000601 0.000000
0.000029 0.000606 0.000000
0.000026 0.000445 0.000000
0.000027 0.000450 0.000000
0.000027 0.000455 0.000000
0.000027 0.000460 0.000000
0.000027 0.000465 0.000000
0.000027 0.000470 0.000000
0.000027 0.000475 0.000000
0.000027 0.000480 0.000000
0.000027 0.000485 0.000000
0.000028 0.000490 0.000000
0.000028 0.000495 0.000000
0.000029 0.000500 0.000000
0.000031 0.000505 0.000000
0.000033 0.000511 0.000000
0.000034 0.000517 0.000000
0.000035 0.000523 0.000000
0.000035 0.000528 0.000000
0.000035 0.000534 0.000000
0.000035 0.000539 0.000000
0.000035 0.000544 0.000000
0.000035 0.000549 0.000000
0.000035 0.000554 0.000000
0.000035 0.000560 0.000000
0.000035 0.000565 0.000000
0.000035 0.000570 0.000000
0.000035 0.000575 0.000000
0.000035 0.000581 0.000000
0.000035 0.000586 0.000000
0.000034 0.000591 0.000000
0.000034 0.000596 0.000000
0.000034 0.000601 0.000000
0.000034 0.000606 0.000000
0.000031 0.000445 0.000000
0.000032 0.000450 0.000000
0.000032 0.000455 0.000000
0.000032 0.000460 0.000000
0.000032 0.000465 0.000000
0.000032 0.000470 0.000000
0.000032 0.000475 0.000000
0.000032 0.000480 0.000000
0.000032 0.000485 0.000000
0.000033 0.000490 0.000000
0.000033 0.000495 0.000000
0.000034 0.000500 0.000000
0.000035 0.000505 0.000000
0.000037 0.000511 0.000000
0.000038 0.000517 0.000000
0.000040 0.000522 0.000000
0.000040 0.000528 0.000000
0.000040 0.000533 0.000000
0.000040 0.000538 0.000000
0.000040 0.000544 0.000000
0.000040 0.000549 0.000000
0.000040 0.000554 0.000000
0.000040 0.000559 0.000000
0.000040 0.000565 0.000000
0.000040 0.000570 0.000000
0.000040 0.000575 0.000000
0.000040 0.000580 0.000000
0.000039 0.000586 0.000000
0.000039 0.000591 0.000000
0.000039 0.000596 0.000000
0.000039 0.000601 0.000000
0.000039 0.000606 0.000000
0.000036 0.000445 0.000000
0.000037 0.000450 0.000000
0.000037 0.000455 0.000000
0.000037 0.000460 0.000000
0.000037 0.000465 0.000000
0.000037 0.000470 0.000000
0.000037 0.000475 0.000000
0.000037 0.000480 0.000000
0.000037 0.000485 0.000000
0.000038 0.000490 0.000000
0.000038 0.000495 0.000000
0.000039 0.000500 0.000000
0.000040 0.000505 0.000000
0.000041 0.000511 0.000000
0.000043 0.000517 0.000000
0.000044 0.000522 0.000000
0.000044 0.000528 0.000000
0.000045 0.000533 0.000000
0.000045 0.000539 0.000000
0.000045 0.000544 0.000000
0.000045 0.000549 0.000000
0.000045 0.000555 0.000000
0.000045 0.000560 0.000000
0.000045 0.000565 0.000000
0.000044 0.000570 0.000000
0.000044 0.000576 0.000000
0.000044 0.000581 0.000000
0.000044 0.000586 0.000000
0.000044 0.000591 0.000000
0.000044 0.000596 0.000000
0.000044 0.000601 0.000000
0.000044 0.000606 0.000000
0.000041 0.000445 0.000000
0.000042 0.000450 0.000000
0.000041 0.000455 0.000000
0.000042 0.000460 0.000000
0.000042 0.000465 0.000000
0.000042 0.000470 0.000000
0.000042 0.000475 0.000000
0.000042 0.000480 0.000000
0.000042 0.000485 0.000000
0.000042 0.000490 0.000000
0.000043 0.000495 0.000000
0.000044 0.000500 0.000000
0.000045 0.000505 0.000000
0.000046 0.000511 0.000000
0.000047 0.000516 0.000000
0.000048 0.000522 0.000000
0.000049 0.000528 0.000000
0.000049 0.000533 0.000000
0.000049 0.000539 0.000000
0.000050 0.000544 0.000000
0.000050 0.000549 0.000000
0.000050 0.000555 0.000000
0.000049 0.000560 0.000000
0.000049 0.000565 0.000000
0.000049 0.000570 0.000000
0.000049 0.000575 0.000000
0.000049 0.000581 0.000000
0.000049 0.000586 0.000000
0.000049 0.000591 0.000000
0.000049 0.000596 0.000000
0.000049 0.000601 0.000000
0.000049 0.000606 0.000000
0.000046 0.000445 0.000000
0.000047 0.000450 0.000000
0.000046 0.000455 0.000000
0.000047 0.000460 0.000000
0.000047 0.000465 0.000000
0.000047 0.000470 0.000000
0.000047 0.000475 0.000000
0.000047 0.000480 0.000000
0.000047 0.000485 0.000000
0.000048 0.000490 0.000000
0.000048 0.000495 0.000000
0.000048 0.000500 0.000000
0.000049 0.000505 0.000000
0.000050 0.000511 0.000000
0.000051 0.000516 0.000000
0.000052 0.000522 0.000000
0.000053 0.000527 0.000000
0.000054 0.000533 0.000000
0.000054 0.000539 0.000000
0.000054 0.000544 0.000000
0.000054 0.000550 0.000000
0.000054 0.000555 0.000000
0.000054 0.000560 0.000000
0.000054 0.000565 0.000000
0.000054 0.000571 0.000000
0.000054 0.000576 0.000000
0.000054 0.000581 0.000000
0.000054 0.000586 0.000000
0.000054 0.000591 0.000000
0.000054 0.000596 0.000000
0.000054 0.000601 0.000000
0.000054 0.000606 0.000000
0.000051 0.000445 0.000000
0.000052 0.000450 0.000000
0.000052 0.000455 0.000000
0.000052 0.000460 0.000000
0.000052 0.000465 0.000000
0.000052 0.000470 0.000000
0.000052 0.000475 0.000000
0.000052 0.000480 0.000000
0.000052 0.000485 0.000000
0.000053 0.000490 0.000000
0.000053 0.000495 0.000000
0.000053 0.000500 0.000000
0.000054 0.000505 0.000000
0.000055 0.000511 0.000000
0.000056 0.000516 0.000000
0.000057 0.000522 0.000000
0.000058 0.000527 0.000000
0.000058 0.000533 0.000000
0.000058 0.000539 0.000000
0.000059 0.000544 0.000000
0.000059 0.000549 0.000000
0.000059 0.000555 0.000000
0.000059 0.000560 0.000000
0.000059 0.000565 0.000000
0.000059 0.000570 0.000000
0.000059 0.000576 0.000000
0.000059 0.000581 0.000000
0.000059 0.000586 0.000000
0.000059 0.000591 0.000000
0.000059 0.000596 0.000000
0.000059 0.000601 0.000000
0.000059 0.000606 0.000000
0.000056 0.000445 0.000000
0.000057 0.000450 0.000000
0.000056 0.000455 0.000000
0.000057 0.000460 0.000000
0.000057 0.000465 0.000000
0.000057 0.000470 0.000000
0.000057 0.000475 0.000000
0.000057 0.000480 0.000000
0.000057 0.000485 0.000000
0.000058 0.000490 0.000000
0.000058 0.000495 0.000000
0.000058 0.000500 0.000000
0.000059 0.000505 0.000000
0.000059 0.000511 0.000000
0.000060 0.000516 0.000000
[...]
POINT_DATA 8052
SCALARS density float 1
LOOKUP_TABLE default
4424.840113
4425.539490
4426.034007
4426.578502
4428.652613
4426.479840
4432.732040
4425.846801
4435.892241
4411.776606
4452.475364
4381.116341
4679.980621
4486.101193
4634.796974
4508.029714
4552.530745
4538.095231
4528.754657
4528.863839
4527.390928
4528.745901
4524.857464
4524.435758
4519.495804
4521.832223
4524.430853
4525.877240
4522.595039
4528.207060
4562.609180
4511.720613
4432.827860
4426.183833
4426.249923
4428.548108
4428.662403
4426.269652
4432.190262
4423.295840
4432.492574
4436.099845
4444.509838
4367.711746
4423.373791
4413.945959
4479.197109
4474.937234
4452.616995
4467.281678
4462.061718
4461.190127
4460.371561
4459.620309
4457.757029
4458.162682
4457.024389
4455.067135
4451.392436
4444.125980
4447.098290
4418.207597
4388.789847
4452.066532
4427.236120
4428.507208
4434.267989
4425.976010
4433.814070
4426.442310
4440.794691
4418.951756
4450.055227
4391.565433
4521.764962
4419.641188
4490.582879
4533.592567
4479.404652
4479.398004
4487.402705
4478.414061
4474.221831
4478.124135
4473.451737
4472.932495
4471.268971
4470.504074
4469.129023
4468.836152
4467.790924
4469.763537
4459.463624
4465.597926
4477.151961
4452.579904
4427.672792
4431.751602
4429.119619
4430.324812
4437.002701
4428.344582
4438.742893
4429.483326
4435.179047
4455.755635
4434.055864
4460.366030
4474.365115
4467.115061
4486.124437
4485.641114
4475.187247
4481.519862
4476.388497
4475.360882
4472.231763
4472.279662
4469.831991
4468.643175
4466.086436
4463.137991
4460.652344
4455.891348
4457.348199
4440.166039
4446.786256
4448.505728
4425.295344
4432.363948
4430.691435
4436.501690
4431.042061
4436.910818
4435.915178
4442.221073
4436.883269
4453.390320
4436.526179
4476.782660
4443.873439
4491.167823
4470.786148
4476.533943
4472.939338
4475.933224
4465.844925
4471.474256
4465.005652
4466.902308
4460.842039
4462.572237
4457.682329
4457.224207
4453.921036
4452.770440
4447.947402
4454.481812
4453.593621
4451.547290
4427.702723
4437.330834
4430.957375
4434.089965
4433.105673
4443.415886
4433.077567
4444.934052
4440.074958
4447.384715
4443.798738
4456.263824
4477.713124
4477.455544
4480.362977
4482.822666
4476.185291
4477.951474
4474.842545
4472.504861
4470.162186
4468.093076
4466.550803
4463.312636
4461.890040
4458.603058
4456.089890
4454.505020
4453.301905
4454.491656
4451.233056
4449.637709
4430.838522
4440.703376
4427.910665
4441.768325
4436.982745
4437.757101
4439.677878
4446.330012
4440.194712
4449.234028
4446.485063
4459.964843
4454.639374
4462.528110
4472.134685
4470.301098
4470.787599
4471.301867
4467.293955
4466.612775
4463.225752
4461.898310
4458.920176
4456.964078
4454.476893
4452.952618
4450.354439
4450.357258
4450.540256
4451.242585
4451.223343
4449.511169
4431.230050
4438.957963
4437.493885
4440.511793
4432.913068
4444.098688
4444.295665
4443.273512
4442.614154
4447.444198
4451.456075
4461.974075
4461.004334
4474.282818
4469.926733
4477.328212
4474.616860
4473.056580
4472.154865
4469.360428
4466.790774
4464.570261
4462.003911
4460.513233
4457.922996
4456.273080
4455.099682
4454.811237
4454.798010
4452.423325
4452.124999
4449.762050
4430.627080
4440.606628
4435.087752
4435.892085
4442.339126
4444.365371
4436.051468
4445.673548
4447.617281
4447.181917
4446.814955
4453.403994
4459.218802
4458.965026
4466.093500
4466.031493
4466.017894
4468.108929
4464.693693
4464.384477
4461.737863
4459.535989
4457.439545
4455.450680
4453.484680
4452.489125
4451.751851
4450.984752
4450.611468
4450.545904
4450.890057
4449.372993
4434.206941
4443.079662
4430.087851
4444.111063
4438.380289
4438.351487
4445.930150
4446.908576
4437.471756
4445.910917
4453.724976
4457.124441
4457.119089
4463.818235
4465.088213
4467.833871
4470.176053
4468.061656
4467.698537
4466.292034
4464.042839
4462.244324
4459.852193
4458.100185
4457.034633
4455.885995
4455.293246
4454.118529
4452.963387
4452.836479
4450.968025
4449.087099
4437.518321
4443.774972
4433.462283
4441.401676
4433.444678
4448.877395
4440.695574
4440.069465
4446.948952
4450.392995
4445.620262
4451.451996
4456.751981
4458.427072
4459.356446
4463.031530
4460.862619
4463.349422
4462.598176
4461.158604
4460.215201
4458.670020
4456.821124
4455.743723
4454.143588
4453.592876
4452.069508
4451.591895
4450.791039
4450.047202
4450.486400
4448.667549
4437.484733
4442.180192
4436.226186
4439.007174
4440.896784
4442.600128
4435.623080
4450.230612
4442.102187
4442.115112
4450.272243
4455.561766
4453.677504
4456.663726
4459.883081
4460.843730
4463.144546
4463.801607
4462.138827
4462.877019
4461.259288
4460.222159
4459.102074
4457.787077
4456.807457
4455.748232
4454.625350
4453.868877
4453.147217
4452.121712
4450.685303
4448.467502
4435.389885
4443.789593
4433.346604
4440.742059
4439.225050
4438.856052
4445.653290
4442.383024
4437.510025
4450.535490
4445.973567
4447.634190
4451.911244
4456.344295
4455.060144
4457.782163
4458.060950
4458.022465
4459.261351
4458.608682
4457.721316
4457.792584
4456.512800
4456.156979
4454.812478
4453.799099
4452.942504
4452.162702
4451.008291
4450.562800
4450.242613
4448.310977
4438.601501
4441.655456
4434.407544
4441.023383
4436.914875
4443.641913
4440.307841
4438.195022
4447.881844
4442.699739
4443.285091
4453.462903
4451.358197
4452.483363
4454.121504
4456.886070
4456.285452
4458.946888
4458.033551
4458.433295
4458.612278
4458.215681
4457.738723
4457.324609
4456.300839
4455.754189
4454.702396
4453.864851
4453.113561
4452.280489
4450.593736
4448.363621
4434.699394
4441.688588
4434.353943
4439.803332
4437.451389
4440.852507
4437.528533
4445.718651
4440.615082
4438.990474
4449.743128
4444.899518
4446.788089
4452.257228
4452.229363
4453.041959
4454.762299
4454.742465
4454.820342
4456.409875
4455.485006
4455.860724
4455.681137
4455.383279
4454.818048
4454.399085
4453.373996
4452.920731
4451.738533
4451.094717
4450.639998
4448.507954
4439.230405
4438.547386
4436.347319
4439.082328
4437.675268
4439.811859
4440.393651
4440.005389
4437.569122
4447.290412
4442.326570
4443.487656
4452.176248
4448.744631
4450.380366
4452.476644
4452.590623
4453.852380
4455.248374
4454.741943
4455.591912
4456.283479
4455.755041
4455.893873
4455.630072
4455.219452
4454.796334
4454.024646
4453.381261
4452.536956
4451.178778
4448.836057
4431.145876
4438.331855
4435.635958
4437.691058
4438.189604
4438.910400
4438.431602
4439.076466
4442.390635
4439.779807
4438.777659
4448.872642
4443.971830
4446.272987
4450.520265
4449.551980
4451.310032
4452.007570
4452.039611
4453.169752
4454.202207
4453.466258
4454.315434
4454.257555
4454.138603
4453.990762
4453.687361
4453.088797
4452.725033
4451.705364
4451.386898
4449.305125
4438.438940
4435.998661
4435.408369
4439.113374
4437.179444
4437.618739
4438.806584
4439.535085
4438.462757
4438.991293
4444.995060
4442.322421
4442.779260
4449.942295
4446.727697
4449.127674
4450.216924
4450.266846
4452.431721
4452.690030
4452.705511
4453.754854
4454.464660
4453.967987
4454.650645
4454.205275
4454.473458
4453.806793
4453.682793
4452.857648
4452.115698
4449.913335
4429.500299
4435.096512
4436.646250
4436.779298
4436.225434
4438.583760
4437.833283
4437.508883
4438.612760
4440.805721
4438.957949
4439.408477
4445.901570
4444.045619
4445.625899
4448.559316
4447.949149
4450.280991
4450.160374
4450.324480
4452.335443
4452.285957
4452.372371
4452.971722
4453.444689
4453.073080
4453.434801
4453.064132
4453.152087
4452.392651
4452.399912
4450.557099
4437.630261
4433.103886
4436.264723
4436.900784
4437.870648
4436.489393
4436.509081
4438.048019
4438.285152
4437.515147
4438.907555
4443.235900
4442.228266
4442.823785
4447.154225
4445.873055
4448.464412
4448.420052
4449.205390
4451.279961
4451.140312
4451.144757
4452.971820
4452.745797
4453.197383
4453.349449
4453.867161
4453.299160
4453.932694
4453.086397
4453.141445
4451.279938
4427.317135
4432.768900
4436.816536
4436.310163
4436.097434
4435.968422
4437.997610
4436.649720
4436.748627
4437.985990
4439.612462
4438.811950
4439.609698
4443.874353
4444.031367
4445.437134
4447.118448
4446.918009
4450.027789
4448.499290
4449.844542
4451.219404
4451.517871
4451.240727
4452.762334
4452.260388
4453.153136
4452.745825
4453.525496
4452.826071
4453.524036
4451.891007
4436.621454
4431.449713
4435.947716
4435.967778
4436.570926
4436.676054
4436.103984
4435.497257
4437.781187
4437.377014
4437.422503
4438.546046
4441.725872
4441.965908
4442.995861
4445.117707
4445.949974
4447.692076
4447.639402
4448.083849
4451.233113
4449.530522
4450.979154
4451.689430
4452.619386
4452.047464
4453.552080
4452.945528
4454.029963
4453.415211
4454.092400
4452.467749
4426.789082
4431.059601
4436.409107
4435.924168
4436.086581
4435.308433
4435.904863
4436.741809
4436.402423
4435.707982
4437.771529
4438.741592
4439.108344
4439.760394
4442.882099
4443.662641
4445.411744
4445.733018
4447.225958
4449.052878
4448.243740
4448.828987
4451.672676
4450.211966
4451.596025
4451.931081
4453.018592
4452.496423
4453.980781
4453.291307
4454.454121
4452.972651
4436.013185
4430.574823
4436.113682
4435.303550
4435.655461
4435.839887
4436.327970
4435.130351
4435.596486
4436.845474
4437.472699
4437.071045
4438.755876
4440.593222
4441.946851
4442.642778
4444.600793
4445.369770
4447.560099
4446.629554
4448.632875
4450.224774
4449.576200
4450.101516
4452.507281
4451.525778
4452.965685
4453.065436
4454.254950
4453.856552
4454.816014
4453.408908
4389.454320
4421.883875
4421.052971
4422.182864
4423.575407
4423.855919
4424.758406
4425.068072
4425.637408
4425.982035
4426.338508
4426.685206
4427.099060
4427.589725
4428.652868
4398.216831
4417.848998
4418.180053
4419.566049
4421.902339
4421.963245
4423.572694
4423.783813
4424.869136
4425.206254
4425.976939
4426.360722
4426.990872
4426.448842
4429.107951
4406.107408
4418.567767
4418.285747
4420.042501
4422.263462
4422.230691
4424.331712
4424.047917
4425.863096
4425.676177
4427.261367
4427.175488
4428.706721
4428.392175
4431.306856
4410.650037
4420.961800
4419.429071
4421.411687
4422.682463
4423.280960
4424.797023
4424.962175
4426.579574
4426.584903
4428.316660
4428.340149
4430.381975
4430.526717
4433.993958
4415.170936
4422.314227
4421.316110
4422.521986
4423.678003
4424.205081
4425.513012
4425.894267
4427.260806
4427.601182
4429.155526
4429.628062
4431.570652
4432.334949
4435.685190
4418.066983
4423.655093
4422.731591
4423.600285
4424.691814
4425.027188
4426.339734
4426.639045
4428.002073
4428.419074
4429.950844
4430.557880
4432.735869
4433.711181
4436.441937
4420.715276
4424.931941
4424.229163
4424.782391
4425.693787
4425.959182
4427.128363
4427.411406
4428.743538
4429.086608
4430.665927
4431.272735
4433.202557
4434.536344
4436.762022
4422.821621
4425.939480
4425.297515
4425.823672
4426.532669
4426.827020
4427.805805
4428.142870
4429.274243
4429.735677
4431.071063
4431.768551
4433.530589
4434.642543
4436.484509
4424.705482
4426.925944
4426.485443
4426.851291
4427.380363
4427.695317
4428.453274
4428.865517
4429.764390
4430.293210
4431.378151
4432.048217
4433.398867
4434.450385
4435.952554
4426.250551
4427.731678
4427.319802
4427.700874
4428.096016
4428.435647
4429.014041
4429.467133
4430.176348
4430.701767
4431.564947
4432.200134
4433.214744
4433.976011
4435.141597
4427.637593
4428.494977
4428.251423
4428.553472
4428.795231
4429.145912
4429.593164
4430.019824
4430.575218
4431.082910
4431.715914
4432.249179
4432.896385
4433.521545
4434.451733
4428.773867
4429.117888
4428.925536
4429.204519
4429.401940
4429.744483
4430.064663
4430.504380
4430.919441
4431.382678
4431.850232
4432.312646
4432.691298
4433.136166
4433.882946
4429.809114
4429.700255
4429.680549
4429.881964
4430.001433
4430.313102
4430.566648
4430.960694
4431.275721
4431.697832
4432.018684
4432.397122
4432.583624
4432.951107
4433.591926
4430.455813
4435.319691
4435.626880
4435.277813
4435.733308
4437.044251
4438.933007
4441.984449
4444.823068
4446.703479
4447.604912
4450.975064
4451.257982
4452.750042
4454.152381
4453.765033
4430.667553
4430.178746
4430.228100
4430.389207
4430.500111
4430.799788
4430.990238
4431.358682
4431.614076
4431.982000
4432.228075
4432.554944
4432.663688
4432.945707
4433.491976
4430.414251
4435.390287
4435.978350
4434.893789
4436.204765
4435.670070
4438.312505
4440.081947
4443.474601
4445.581627
4448.672253
4449.615150
4451.171280
4453.839413
4454.580067
4454.267537
4431.454440
4430.633711
4430.836065
4430.935179
4431.016913
4431.275155
4431.430254
4431.759522
4431.972030
4432.291669
4432.494905
4432.775505
4432.847692
4433.151861
4433.645194
4431.246273
4435.830521
4435.633715
4435.758107
4435.757996
4435.954907
4437.375131
4439.194906
4442.364208
4444.875077
4447.593928
4449.551098
4452.747133
4453.450954
4454.689535
4454.430459
4432.125710
4431.010441
4431.281609
4431.345683
4431.430960
4431.684476
4431.813911
4432.115484
4432.308394
4432.604460
4432.793703
4433.058431
4433.159351
4433.491481
4433.919243
4432.382052
4436.095807
4435.704282
4436.691026
4435.779466
4437.384196
4436.874999
4439.220693
4440.911086
4444.100831
4447.515544
4450.011985
4451.975947
4453.615389
4455.345195
4454.235858
4432.752612
4431.372789
4431.773456
4431.801103
4431.871960
4432.098968
4432.203999
4432.486995
4432.664486
4432.934516
4433.120399
4433.385354
4433.517676
4433.922399
4434.294365
4433.584405
4436.041266
4436.216114
4436.676737
4436.672207
4437.801697
4437.587312
4439.796306
4440.789472
4444.486915
4446.396142
4449.497698
4452.190754
4453.793812
4454.416597
4453.797254
4433.299709
4431.678018
4432.137646
4432.147096
4432.215577
4432.454697
4432.547583
4432.819721
4432.985392
4433.261241
4433.455648
4433.730967
4433.911499
4434.389636
4434.667957
4434.543175
4436.124040
4436.909010
4436.753681
4438.060435
4437.706910
4439.599933
4439.691769
4441.633531
4443.491818
4446.158038
4449.696229
4451.134447
4452.789320
4453.412047
4453.185912
4433.816274
4431.975660
4432.535563
4432.534100
4432.588533
4432.817717
4432.893139
4433.161962
4433.317203
4433.590917
4433.783950
4434.085691
4434.287117
4434.844864
4435.013438
4435.292539
4436.346621
4437.092981
4437.211668
4438.365978
4438.236207
4440.338329
4439.987404
4443.157140
4443.354505
4446.308543
4447.680695
4449.977036
4452.035737
4453.002121
4452.364119
4434.271691
4432.229619
4432.834453
4432.829017
4432.873892
4433.122936
4433.192160
4433.461612
4433.608795
4433.898136
4434.096876
4434.421598
4434.636152
4435.264092
4435.287388
4436.000916
4436.972403
4437.261332
4438.017503
4438.290539
4439.459862
4439.843789
4441.237544
4442.228410
4443.411087
4445.627317
4447.031494
4449.348450
4450.507077
4451.723883
4451.376115
4434.698114
4432.475105
4433.156924
4433.154470
4433.184181
4433.433581
4433.491222
4433.763267
4433.901940
4434.196364
4434.388520
4434.733494
4434.950112
4435.628687
4435.505068
4436.605899
4437.211947
4437.338143
4438.461779
4438.494583
4439.967294
4439.838567
4442.131502
4441.723846
4444.403149
4444.359482
4446.140804
4447.655821
4449.074679
4450.718535
4450.294876
4435.072679
4432.684412
4433.401496
4433.397762
4433.418800
4433.686969
4433.739266
4434.018616
4434.148644
4434.459472
4434.648645
4435.009764
4435.225328
4435.936865
4435.683598
4437.022194
4437.174562
4438.051131
4438.385554
4438.941294
4439.760585
4440.485959
4441.491437
4442.114981
4443.692696
4444.108478
4446.060136
4446.572085
4448.043860
4449.194250
4448.947108
4435.417808
4432.883418
4433.659923
4433.661373
4433.676639
4433.946620
4433.987294
4434.273877
4434.393244
4434.705908
4434.883856
4435.254780
4435.458571
4436.196334
4435.814588
4437.231715
4437.345821
4438.439846
4438.224206
4439.648471
4439.624161
4440.978899
4441.056112
4442.811104
4442.740431
4444.340814
4444.833840
4445.868327
4447.214518
4448.101360
4447.486122
4435.716685
4433.051528
4433.854855
4433.856654
4433.863528
4434.149411
4434.184896
4434.480247
4434.588341
4434.911885
4435.086981
4435.463166
4435.653360
4436.411325
4435.913482
4437.620741
4438.207028
4438.059350
4438.726338
4439.443993
4439.649020
4440.904763
4441.190624
4442.454373
4442.714469
4444.302279
4444.414155
4445.774227
4446.403456
4447.517386
4445.557457
4435.983615
4433.209358
4434.057223
4434.063837
4434.067472
4434.359889
4434.379147
4434.682154
4434.780360
4435.103658
4435.262208
4435.636892
4435.815374
4436.579961
4435.993339
4437.908615
4438.017865
4437.882050
4439.531610
4438.954118
4440.362582
4440.425415
4441.416014
4441.913090
4442.937517
4443.444585
4444.376725
4445.296821
4446.069848
4447.084708
4443.821814
4436.209327
4433.342222
4434.204464
4434.214107
4434.208981
4434.511572
4434.524505
4434.840601
4434.922390
4435.252785
4435.407773
4435.782473
4435.945268
4436.704592
4436.064307
4437.990147
4437.757930
4438.966998
4438.704887
4439.098199
4440.381553
4440.229453
4441.637182
4441.679861
4442.830272
4443.100656
4444.217912
4444.668122
4445.607346
4446.358644
4442.558770
4436.406138
4433.461799
4434.355638
4434.372112
4434.357978
4434.673326
4434.670971
4434.987003
4435.060955
4435.394084
4435.525006
4435.891864
4436.043903
4436.792606
4436.113204
4437.857085
4437.810085
4438.948574
4438.343879
4440.356454
4439.472839
4440.670543
4441.072498
4441.617214
4442.448110
4443.005374
4443.742428
4444.296032
4445.087905
4445.603829
4441.672449
4436.565331
4433.560357
4434.462779
4434.478324
4434.459461
4434.782797
4434.767759
4435.099396
4435.157076
4435.488934
4435.614790
4435.987447
4436.111470
4436.861765
4436.127938
4438.014152
4438.905945
4438.251332
4439.156396
4439.451230
4439.461994
4441.125175
4440.617979
4441.866182
4441.991596
4442.782142
4443.280028
4443.909611
4444.481287
4444.921813
4440.983060
4436.698390
4433.649128
4434.566417
4434.593405
4434.566626
4434.891613
4434.874347
4435.197505
4435.246275
4435.584177
4435.685605
4436.038314
4436.147400
4436.898138
4436.125003
4438.344811
4438.874074
4437.907109
4440.041292
4438.851032
4440.688129
4439.957071
4440.866072
4441.608652
4441.851585
4442.597020
4442.962872
4443.520961
4443.965564
4444.305884
4440.388500
4436.801556
4433.716125
4434.635539
4434.668394
4434.624046
4434.964970
4434.932491
4435.258732
4435.313164
4435.627166
4435.727723
4436.083695
4436.176869
4436.900696
4436.114139
4438.224550
4437.924784
4439.033011
4439.090321
4439.182559
4440.407604
4440.006166
4441.493266
4441.022073
4441.898063
4442.273230
4442.728480
4443.187745
4443.569805
4443.790615
4439.870176
4436.880504
4433.770813
4434.705694
4434.737895
4434.693774
4435.034544
4434.986557
4435.329428
4435.352232
4435.676644
4435.767976
4436.081978
4436.167389
4436.861916
4436.117766
4437.784020
4437.494965
4440.123877
4438.391720
4440.604654
4439.500321
4440.697453
4440.745502
4441.248530
4441.937845
4442.060299
4442.598720
4442.937489
4443.276295
4443.400161
4439.423997
4436.929387
4433.813188
4434.743269
4434.772629
4434.733057
4435.059440
4435.023565
4435.351325
4435.368972
4435.703624
4435.750802
4436.102757
4436.164744
4436.829046
4436.020475
4437.519777
4439.020507
4439.015448
4439.038283
4440.449406
4439.747302
4441.191257
4440.676110
4441.638161
4441.603196
4442.173788
4442.527226
4442.847922
4443.147135
4443.142046
4439.020282
4436.956442
4433.851093
4434.769311
4434.817351
4434.763693
4435.097550
4435.056820
4435.362745
4435.405536
4435.692624
4435.767931
4436.088463
4436.079806
4436.785362
4435.972675
4438.211916
4440.162718
4437.986061
4440.948740
4439.581010
4440.660205
4440.760262
4441.156233
4441.668498
4441.817870
4442.456374
4442.466551
4442.960932
4443.175299
4443.022887
4438.656922
4436.960181
4433.876222
4434.770954
4434.838854
4434.757020
4435.125279
4435.037579
4435.385171
4435.391592
4435.683318
4435.776480
4436.030473
4436.116301
4436.656861
4435.824784
4437.809057
4438.992622
4439.064700
4441.337243
4439.816946
4441.618858
4440.936459
4441.784962
4441.749101
4442.358379
4442.439694
4442.812865
4443.240445
4443.380452
4443.139279
4438.382109
4436.941836
4433.888417
4434.772876
4434.850610
4434.759040
4435.144849
4435.021804
4435.418106
4435.346343
4435.732470
4435.711250
4436.044560
4436.057830
4436.497864
4435.902059
4437.502904
4437.959492
4441.350610
4440.569658
4441.084686
4441.564187
4441.539522
4442.344378
4442.246437
4442.924340
4442.870438
4443.745579
4443.381715
4444.014509
4443.629918
4438.324248