# vtk DataFile Version 2.0
mfree iwf
ASCII

DATASET UNSTRUCTURED_GRID
POINTS 11625 float
-0.000000 0.000445 0.000000
0.000000 0.000450 0.000000
-0.000000 0.000455 0.000000
-0.000000 0.000460 0.000000
-0.000000 0.000465 0.000000
-0.000000 0.000470 0.000000
-0.000000 0.000475 0.000000
-0.000000 0.000480 0.000000
0.000000 0.000485 0.000000
0.000000 0.000490 0.000000
-0.000000 0.000496 0.000000
0.000002 0.000500 0.000000
0.001108 0.000992 0.000000
0.001117 0.000990 0.000000
0.001161 0.000973 0.000000
0.001165 0.000970 0.000000
0.001165 0.000970 0.000000
0.001172 0.000967 0.000000
0.001178 0.000964 0.000000
0.001174 0.000966 0.000000
0.001187 0.000960 0.000000
0.001211 0.000947 0.000000
0.001216 0.000941 0.000000
0.001219 0.000938 0.000000
0.001222 0.000935 0.000000
0.001225 0.000931 0.000000
0.001229 0.000927 0.000000
0.001231 0.000923 0.000000
0.001234 0.000920 0.000000
0.001238 0.000915 0.000000
0.001242 0.000910 0.000000
0.001261 0.000898 0.000000
0.000005 0.000445 0.000000
0.000005 0.000450 0.000000
0.000005 0.000455 0.000000
0.000005 0.000460 0.000000
0.000005 0.000465 0.000000
0.000005 0.000470 0.000000
0.000005 0.000475 0.000000
0.000005 0.000480 0.000000
0.000005 0.000485 0.000000
0.000006 0.000490 0.000000
0.000003 0.000496 0.000000
0.000006 0.000499 0.000000
0.001156 0.000974 0.000000
0.001160 0.000965 0.000000
0.001193 0.000954 0.000000
0.001198 0.000951 0.000000
0.001203 0.000949 0.000000
0.001206 0.000946 0.000000
0.001208 0.000944 0.000000
0.001210 0.000940 0.000000
0.001213 0.000937 0.000000
0.001217 0.000932 0.000000
0.001223 0.000927 0.000000
0.001226 0.000922 0.000000
0.001229 0.000917 0.000000
0.001236 0.000911 0.000000
0.001238 0.000907 0.000000
0.001243 0.000903 0.000000
0.001253 0.000899 0.000000
0.001255 0.000897 0.000000
0.001250 0.000901 0.000000
0.001258 0.000896 0.000000
0.000010 0.000445 0.000000
0.000011 0.000450 0.000000
0.000009 0.000455 0.000000
0.000011 0.000460 0.000000
0.000010 0.000465 0.000000
0.000010 0.000469 0.000000
0.000009 0.000475 0.000000
0.000011 0.000480 0.000000
0.000009 0.000486 0.000000
0.000012 0.000489 0.000000
0.000008 0.000497 0.000000
0.000011 0.000498 0.000000
0.001155 0.000970 0.000000
0.001163 0.000963 0.000000
0.001178 0.000959 0.000000
0.001186 0.000956 0.000000
0.001190 0.000954 0.000000
0.001195 0.000952 0.000000
0.001185 0.000950 0.000000
0.001193 0.000945 0.000000
0.001198 0.000944 0.000000
0.001203 0.000940 0.000000
0.001211 0.000933 0.000000
0.001216 0.000929 0.000000
0.001216 0.000922 0.000000
0.001220 0.000920 0.000000
0.001224 0.000919 0.000000
0.001233 0.000912 0.000000
0.001245 0.000901 0.000000
0.001247 0.000900 0.000000
0.001251 0.000893 0.000000
0.001252 0.000888 0.000000
0.000014 0.000445 0.000000
0.000016 0.000450 0.000000
0.000014 0.000455 0.000000
0.000017 0.000460 0.000000
0.000015 0.000470 0.000000
0.000015 0.000464 0.000000
0.000014 0.000476 0.000000
0.000017 0.000480 0.000000
0.000014 0.000485 0.000000
0.000016 0.000489 0.000000
0.000014 0.000495 0.000000
0.000016 0.000497 0.000000
0.000025 0.000500 0.000000
0.001166 0.000963 0.000000
0.001181 0.000957 0.000000
0.001176 0.000954 0.000000
0.001188 0.000948 0.000000
0.001198 0.000949 0.000000
0.001198 0.000940 0.000000
0.001206 0.000935 0.000000
0.001201 0.000934 0.000000
0.001208 0.000931 0.000000
0.001215 0.000917 0.000000
0.001219 0.000926 0.000000
0.001224 0.000912 0.000000
0.001229 0.000912 0.000000
0.001228 0.000907 0.000000
0.001233 0.000906 0.000000
0.001237 0.000900 0.000000
0.001241 0.000897 0.000000
0.001244 0.000894 0.000000
0.001250 0.000885 0.000000
0.000019 0.000445 0.000000
0.000021 0.000450 0.000000
0.000018 0.000455 0.000000
0.000022 0.000458 0.000000
0.000019 0.000468 0.000000
0.000024 0.000467 0.000000
0.000018 0.000474 0.000000
0.000022 0.000479 0.000000
0.000019 0.000486 0.000000
0.000021 0.000491 0.000000
0.000020 0.000497 0.000000
0.000022 0.000499 0.000000
0.000039 0.000500 0.000000
0.001162 0.000952 0.000000
0.001169 0.000956 0.000000
0.001175 0.000948 0.000000
0.001182 0.000953 0.000000
0.001191 0.000942 0.000000
0.001190 0.000938 0.000000
0.001203 0.000929 0.000000
0.001193 0.000935 0.000000
0.001205 0.000925 0.000000
0.001204 0.000916 0.000000
0.001209 0.000911 0.000000
0.001215 0.000911 0.000000
0.001223 0.000906 0.000000
0.001227 0.000897 0.000000
0.001234 0.000897 0.000000
0.001237 0.000894 0.000000
0.001244 0.000888 0.000000
0.001248 0.000890 0.000000
0.001247 0.000882 0.000000
0.000024 0.000445 0.000000
0.000026 0.000450 0.000000
0.000024 0.000456 0.000000
0.000026 0.000461 0.000000
0.000021 0.000465 0.000000
0.000025 0.000473 0.000000
0.000023 0.000476 0.000000
0.000027 0.000481 0.000000
0.000023 0.000485 0.000000
0.000026 0.000488 0.000000
0.000026 0.000493 0.000000
0.000027 0.000500 0.000000
0.001137 0.000984 0.000000
0.001169 0.000960 0.000000
0.001173 0.000959 0.000000
0.001187 0.000944 0.000000
0.001181 0.000943 0.000000
0.001199 0.000936 0.000000
0.001196 0.000930 0.000000
0.001186 0.000937 0.000000
0.001193 0.000926 0.000000
0.001211 0.000927 0.000000
0.001209 0.000919 0.000000
0.001210 0.000923 0.000000
0.001220 0.000915 0.000000
0.001220 0.000910 0.000000
0.001232 0.000901 0.000000
0.001227 0.000902 0.000000
0.001240 0.000890 0.000000
0.001232 0.000891 0.000000
0.001241 0.000885 0.000000
0.001243 0.000879 0.000000
0.000030 0.000445 0.000000
0.000031 0.000450 0.000000
0.000029 0.000455 0.000000
0.000031 0.000460 0.000000
0.000031 0.000464 0.000000
0.000028 0.000468 0.000000
0.000031 0.000472 0.000000
0.000031 0.000477 0.000000
0.000031 0.000486 0.000000
0.000031 0.000491 0.000000
0.000033 0.000497 0.000000
0.000030 0.000499 0.000000
0.000048 0.000500 0.000000
0.001158 0.000959 0.000000
0.001171 0.000947 0.000000
0.001179 0.000947 0.000000
0.001175 0.000943 0.000000
0.001181 0.000940 0.000000
0.001188 0.000929 0.000000
0.001200 0.000918 0.000000
0.001199 0.000926 0.000000
0.001203 0.000921 0.000000
0.001212 0.000915 0.000000
0.001213 0.000901 0.000000
0.001217 0.000906 0.000000
0.001219 0.000902 0.000000
0.001223 0.000893 0.000000
0.001223 0.000899 0.000000
0.001229 0.000887 0.000000
0.001235 0.000887 0.000000
0.001239 0.000882 0.000000
0.001240 0.000876 0.000000
0.000035 0.000445 0.000000
0.000035 0.000450 0.000000
0.000034 0.000456 0.000000
0.000038 0.000454 0.000000
0.000035 0.000467 0.000000
0.000036 0.000472 0.000000
0.000031 0.000479 0.000000
0.000041 0.000478 0.000000
0.000034 0.000483 0.000000
0.000034 0.000488 0.000000
0.000037 0.000491 0.000000
0.000036 0.000498 0.000000
0.001095 0.000992 0.000000
0.001133 0.000985 0.000000
0.001166 0.000950 0.000000
0.001170 0.000941 0.000000
0.001183 0.000932 0.000000
0.001174 0.000931 0.000000
0.001190 0.000931 0.000000
0.001188 0.000924 0.000000
0.001196 0.000923 0.000000
0.001187 0.000915 0.000000
0.001195 0.000908 0.000000
0.001209 0.000903 0.000000
0.001211 0.000907 0.000000
0.001215 0.000898 0.000000
0.001227 0.000892 0.000000
0.001218 0.000882 0.000000
0.001230 0.000882 0.000000
0.001232 0.000882 0.000000
0.001235 0.000878 0.000000
0.001236 0.000872 0.000000
0.000040 0.000445 0.000000
0.000041 0.000450 0.000000
0.000036 0.000461 0.000000
0.000040 0.000459 0.000000
0.000042 0.000463 0.000000
0.000039 0.000468 0.000000
0.000041 0.000472 0.000000
0.000037 0.000478 0.000000
0.000041 0.000487 0.000000
0.000042 0.000491 0.000000
0.000041 0.000497 0.000000
0.000044 0.000498 0.000000
0.000944 0.000952 0.000000
0.001155 0.000967 0.000000
0.001157 0.000955 0.000000
0.001165 0.000937 0.000000
0.001180 0.000936 0.000000
0.001182 0.000928 0.000000
0.001178 0.000932 0.000000
0.001193 0.000919 0.000000
0.001199 0.000912 0.000000
0.001204 0.000912 0.000000
0.001196 0.000914 0.000000
0.001197 0.000898 0.000000
0.001208 0.000897 0.000000
0.001214 0.000892 0.000000
0.001218 0.000896 0.000000
0.001218 0.000891 0.000000
0.001223 0.000888 0.000000
0.001225 0.000879 0.000000
0.001231 0.000875 0.000000
0.001232 0.000869 0.000000
0.000044 0.000445 0.000000
0.000046 0.000450 0.000000
0.000044 0.000455 0.000000
0.000046 0.000460 0.000000
0.000044 0.000467 0.000000
0.000047 0.000474 0.000000
0.000045 0.000479 0.000000
0.000040 0.000483 0.000000
0.000051 0.000485 0.000000
0.000045 0.000483 0.000000
0.000048 0.000493 0.000000
0.000050 0.000498 0.000000
0.000950 0.000956 0.000000
0.001152 0.000976 0.000000
0.001171 0.000952 0.000000
0.001174 0.000938 0.000000
0.001171 0.000935 0.000000
0.001182 0.000923 0.000000
0.001184 0.000920 0.000000
0.001189 0.000919 0.000000
0.001190 0.000908 0.000000
0.001200 0.000906 0.000000
0.001205 0.000908 0.000000
0.001209 0.000893 0.000000
0.001204 0.000896 0.000000
0.001210 0.000889 0.000000
0.001218 0.000886 0.000000
0.001223 0.000883 0.000000
0.001220 0.000878 0.000000
0.001225 0.000876 0.000000
0.001228 0.000872 0.000000
0.001228 0.000866 0.000000
0.000049 0.000445 0.000000
0.000053 0.000450 0.000000
0.000049 0.000454 0.000000
0.000053 0.000455 0.000000
0.000048 0.000465 0.000000
0.000049 0.000471 0.000000
0.000053 0.000468 0.000000
0.000051 0.000477 0.000000
0.000047 0.000488 0.000000
0.000052 0.000491 0.000000
0.000057 0.000492 0.000000
0.000053 0.000498 0.000000
0.001038 0.000989 0.000000
0.001143 0.000973 0.000000
0.001153 0.000962 0.000000
0.001166 0.000942 0.000000
0.001170 0.000929 0.000000
0.001178 0.000926 0.000000
0.001172 0.000923 0.000000
0.001178 0.000920 0.000000
0.001185 0.000910 0.000000
0.001192 0.000913 0.000000
0.001188 0.000906 0.000000
0.001200 0.000903 0.000000
0.001198 0.000891 0.000000
0.001205 0.000901 0.000000
0.001209 0.000885 0.000000
0.001211 0.000878 0.000000
0.001213 0.000883 0.000000
0.001220 0.000872 0.000000
0.001224 0.000868 0.000000
0.001225 0.000863 0.000000
0.000054 0.000445 0.000000
0.000058 0.000450 0.000000
0.000054 0.000459 0.000000
0.000051 0.000462 0.000000
0.000060 0.000466 0.000000
0.000053 0.000473 0.000000
0.000058 0.000476 0.000000
0.000056 0.000481 0.000000
0.000052 0.000483 0.000000
0.000057 0.000486 0.000000
0.000056 0.000497 0.000000
0.000059 0.000496 0.000000
0.001061 0.000991 0.000000
0.001151 0.000977 0.000000
[...]
POINT_DATA 11625
SCALARS density float 1
LOOKUP_TABLE default
4428.035229
4432.798136
4426.400348
4424.350682
4430.234439
4426.768180
4430.784834
4431.825035
4430.984578
4420.625141
4431.592426
4404.886879
4429.127979
4418.586152
4416.310537
4441.210633
4442.364458
4436.791577
4445.637705
4451.820967
4421.052738
4428.412421
4398.347005
4434.833033
4429.118661
4423.188765
4450.240055
4420.638411
4416.115919
4446.674846
4423.930162
4403.279607
4429.511297
4429.050365
4423.008585
4430.677349
4436.522041
4422.053473
4431.549060
4424.973789
4415.301048
4431.738713
4450.254099
4408.660365
4412.272173
4418.588863
4422.540984
4411.084267
4425.180475
4439.519379
4448.748241
4452.540742
4447.410952
4432.779843
4412.543775
4393.380136
4437.666487
4393.515581
4431.624844
4457.653278
4423.992313
4435.614993
4406.042893
4403.999925
4420.094827
4425.091748
4447.868388
4422.484578
4421.635535
4420.393803
4447.468021
4390.023699
4469.210128
4380.104263
4448.656096
4400.891456
4461.226064
4453.337610
4422.063869
4405.087257
4430.018666
4406.998267
4441.728618
4429.630765
4429.141070
4375.452413
4420.503849
4423.661714
4396.172049
4451.280436
4447.434869
4396.232813
4420.486966
4427.932929
4447.954191
4404.661182
4424.293268
4439.598115
4435.562503
4411.124150
4429.880875
4444.026149
4464.655359
4390.311972
4473.049948
4380.483776
4511.177208
4400.997257
4435.932616
4375.108416
4428.816181
4447.806176
4461.915590
4461.973546
4387.356049
4395.513051
4467.511513
4419.467168
4439.892019
4444.480264
4397.622164
4477.708145
4420.427876
4478.353442
4441.359636
4363.920508
4493.596561
4441.578770
4440.226311
4428.657977
4430.913899
4451.130870
4415.045738
4447.501216
4411.216529
4451.329585
4471.271174
4380.407492
4466.648261
4434.207817
4417.361217
4423.698023
4474.853969
4449.960367
4463.625724
4449.356370
4458.297312
4403.006740
4409.855391
4416.675936
4436.450860
4421.829232
4418.893665
4431.607833
4422.854537
4459.639866
4459.613415
4404.533883
4397.545384
4417.611556
4434.262567
4445.617814
4439.786977
4402.933247
4436.527561
4410.295668
4468.953319
4364.508112
4428.157081
4472.640584
4411.179586
4425.555048
4438.520549
4421.917376
4391.697099
4396.355008
4471.064293
4471.358280
4379.210233
4399.869503
4476.702720
4455.290434
4411.131263
4449.879226
4429.394612
4470.422714
4383.236105
4440.002068
4404.917436
4423.706200
4482.183430
4415.797081
4417.958163
4432.437437
4406.949961
4446.982723
4432.759276
4445.027180
4391.019001
4461.652273
4452.968943
4411.466973
4457.596765
4419.525064
4423.328979
4444.495693
4457.763218
4387.277865
4396.381183
4450.267230
4432.417807
4419.219446
4450.829832
4443.061471
4445.268051
4452.044826
4424.338244
4390.125591
4407.205974
4453.409719
4410.756608
4390.330903
4407.532879
4444.855482
4430.409040
4423.466755
4445.152296
4426.711195
4436.532307
4429.289006
4444.583641
4428.645718
4392.527424
4430.917306
4412.863364
4444.657684
4415.621767
4423.055196
4408.763864
4429.415719
4435.628132
4436.970786
4460.924090
4397.594570
4406.630896
4425.530029
4399.624151
4464.329199
4409.819156
4449.647923
4447.176016
4444.561902
4452.489612
4455.990108
4408.917182
4414.918355
4434.677503
4425.084009
4401.216448
4445.488143
4433.943692
4440.703179
4427.423144
4424.474857
4450.323230
4429.430877
4434.176412
4427.198193
4427.897771
4457.512069
4388.686235
4411.953381
4439.534636
4436.263198
4435.332591
4419.171658
4416.976422
4429.753809
4446.811408
4395.625430
4405.953618
4424.959715
4435.270566
4426.776185
4434.976052
4401.255815
4419.403159
4433.493376
4428.605417
4420.635865
4424.501106
4428.951314
4403.315398
4449.305095
4425.400857
4439.501451
4458.872977
4409.025408
4465.932051
4430.063125
4433.709557
4441.831323
4391.569396
4400.072059
4443.094696
4456.425413
4445.971465
4461.547708
4451.971694
4455.919848
4423.620630
4438.767087
4456.292709
4442.406623
4432.845076
4424.534927
4447.173684
4417.348144
4455.430135
4424.043871
4423.909569
4427.118250
4442.570224
4409.371409
4436.300158
4440.965946
4424.394955
4384.141208
4393.762070
4422.377067
4538.611490
4405.199992
4437.695186
4431.547459
4392.456458
4456.446603
4443.275983
4398.536737
4462.001041
4411.245476
4402.453230
4420.865978
4450.981626
4451.350149
4391.873005
4391.827177
4453.111207
4417.218291
4398.951484
4415.304445
4423.177425
4431.286654
4446.339729
4421.450419
4442.304519
4416.544935
4426.328857
4442.383326
4428.801447
4448.861017
4476.352693
4342.242734
4408.820459
4393.121896
4428.259508
4429.855906
4423.715500
4416.394746
4444.613764
4426.632483
4400.137369
4445.501848
4428.691822
4391.772704
4453.301807
4423.481264
4457.837866
4403.776962
4469.088958
4421.543619
4422.779302
4436.660239
4434.308261
4421.666181
4425.077664
4424.824075
4424.176150
4401.217922
4424.548279
4448.961081
4425.570087
4449.629884
4458.553197
4423.385312
4444.709638
4442.406795
4411.473513
4429.599815
4432.464935
4385.224890
4397.601051
4430.362971
4443.968595
4415.818962
4451.887620
4441.301688
4440.410505
4415.363894
4393.672888
4456.648371
4424.076812
4402.446457
4429.914458
4436.852981
4440.760460
4432.408759
4438.540134
4435.517048
4450.101265
4408.206297
4427.988447
4429.645096
4381.248568
4414.078683
4431.238982
4381.944311
4440.669786
4455.223394
4411.792653
4432.373944
4410.899789
4385.722740
4428.078231
4377.555057
4438.516191
4431.832446
4436.012961
4430.813239
4457.030458
4444.231995
4399.057033
4470.089656
4426.419370
4393.697094
4420.418956
4439.354542
4417.220971
4438.996221
4412.763858
4421.563403
4437.617446
4458.444058
4435.056959
4441.988389
4450.203260
4407.571077
4389.676885
4443.014411
4444.070397
4453.265358
4429.255481
4441.448819
4427.883310
4468.181860
4451.881331
4461.320843
4446.867648
4438.982572
4397.855671
4419.069319
4426.325038
4430.238483
4455.766892
4425.746122
4417.402480
4425.400250
4442.215914
4425.162606
4423.760468
4433.116211
4442.363763
4400.622551
4428.234836
4390.944613
4418.636356
4389.807889
4461.691335
4424.657268
4448.460672
4385.977461
4380.449701
4458.639212
4435.003883
4423.275510
4430.096586
4451.799843
4446.489380
4410.241164
4418.681501
4421.908733
4390.125254
4420.321834
4414.970573
4454.284667
4380.877884
4461.540543
4394.255072
4440.359026
4433.945272
4407.547590
4441.918262
4420.182535
4427.920242
4438.145718
4442.795239
4441.445628
4447.879425
4418.072774
4416.056337
4446.340806
4427.460302
4389.883246
4410.335360
4427.542716
4424.288367
4420.487523
4433.730144
4436.069071
4477.398993
4440.534256
4424.725869
4436.357228
4418.038832
4453.453429
4443.996956
4414.232871
4431.903043
4399.850101
4423.698424
4451.153921
4408.121678
4445.983670
4430.221233
4443.210714
4442.749334
4437.927760
4449.759949
4426.236831
4420.837999
4435.613096
4420.845282
4440.438574
4377.849476
4505.631948
4430.454344
4466.671631
4432.012971
4427.505159
4441.252778
4435.030919
4461.571247
4433.030925
4482.877357
4494.736387
4438.039018
4437.674260
4427.252055
4437.018419
4434.632978
4440.225626
4396.422660
4416.437023
4438.258358
4450.719918
4414.541401
4432.276031
4418.418687
4431.676707
4410.854824
4421.898859
4442.472340
4427.905099
4452.216255
4444.506854
4449.992448
4434.752639
4387.546693
4425.868064
4416.115714
4420.108992
4433.566305
4448.981264
4423.981328
4429.051636
4433.164548
4432.030579
4442.648601
4446.537594
4426.841519
4412.951748
4422.627408
4413.876355
4452.310760
4450.919338
4438.369095
4402.268359
4430.710706
4429.032113
4455.765966
4407.098832
4437.519122
4441.033891
4425.130787
4412.268016
4448.591733
4425.233924
4424.223184
4439.572493
4423.941006
4433.845719
4410.807529
4444.694492
4442.042761
4470.190005
4425.891238
4440.943516
4431.539917
4438.882026
4488.505048
4426.954779
4460.072197
4438.878706
4407.602756
4402.323637
4449.458166
4409.889561
4418.088074
4440.364960
4446.153295
4434.048249
4430.435980
4438.798059
4449.642393
4413.677392
4428.647800
4455.777673
4406.542579
4402.787105
4455.469187
4468.318823
4393.185814
4506.780650
4426.653027
4411.604232
4427.361192
4479.519449
4439.681918
4418.237104
4355.208801
4435.308508
4387.745990
4457.164078
4488.719703
4433.331720
4464.039769
4453.137001
4410.305507
4455.702437
4445.220646
4436.012893
4403.435710
4434.598483
4437.179494
4422.912251
4433.485119
4430.791190
4457.893884
4433.298822
4451.475369
4437.213102
4451.081506
4354.383418
4431.339852
4428.979008
4434.597080
4422.064433
4434.110618
4453.833575
4449.760110
4404.358469
4444.318348
4426.579540
4399.004235
4356.356333
4447.297576
4401.295370
4430.055014
4420.431000
4422.808722
4417.901707
4435.927760
4429.190196
4435.348895
4434.621148
4414.025744
4429.594124
4396.844501
4418.653537
4428.700120
4406.370174
4443.151970
4416.409711
4461.100642
4387.591244
4407.508415
4449.389489
4430.327139
4461.899923
4386.260719
4440.417938
4435.577761
4441.965028
4428.483292
4461.372073
4436.625411
4361.718434
4365.886431
4444.422306
4382.140981
4399.345489
4419.264734
4450.421176
4428.738304
4428.401444
4411.391500
4418.566690
4433.664947
4430.274374
4456.521235
4424.120466
4427.504244
4438.396483
4416.063703
4432.357741
4459.101484
4449.364556
4453.413815
4427.822837
4462.253674
4427.397769
4436.581007
4381.249718
4355.511104
4417.623609
4394.709810
4416.210876
4374.692759
4449.023539
4444.324838
4467.145799
4449.670279
4439.464744
4431.115043
4433.718137
4458.662862
4403.722515
4453.020820
4424.624759
4428.374812
4430.457193
4430.635664
4430.726016
4430.522973
4430.002153
4429.630693
4429.199629
4429.407723
4430.113218
4431.165913
4431.640980
4431.397411
4430.649309
4430.079150
4429.004130
4429.924682
4428.827901
4428.856871
4429.611672
4430.726437
4432.162193
4433.293539
4433.454955
4431.913691
4429.727252
4428.337124
4428.551587
4430.246297
4431.403758
4429.442406
4430.189402
4431.339385
4431.650211
4431.112160
4429.818257
4428.506528
4426.969213
4427.047967
4428.614801
4431.431972
4432.985090
4432.083864
4430.719131
4428.289304
4429.774847
4429.723023
4428.470747
4428.316911
4428.893786
4430.427768
4431.817137
4433.803592
4433.610543
4432.155599
4428.977827
4427.088418
4426.860978
4428.726059
4430.239251
4429.915741
4429.999109
4431.341804
4431.744512
4430.997344
4429.778523
4428.132102
4426.325437
4426.347488
4427.835581
4431.018702
4432.540276
4432.915517
4429.124691
4429.853665
4429.794297
4429.529774
4428.549271
4427.701737
4429.079781
4429.676794
4432.050677
4432.993106
4434.024010
4431.110030
4429.345219
4426.013058
4427.390437
4428.465125
4429.830432
4429.971089
4429.728577
4431.501949
4431.468078
4430.981837
4429.484297
4427.931721
4426.020717
4426.006380
4427.579095
4430.425840
4432.630401
4431.265234
4428.756379
4427.277874
4429.637784
4429.440064
4428.428361
4427.667925
4428.641817
4429.792301
4431.454251
4433.137995
4433.389537
4431.344271
4428.705878
4425.865617
4427.155572
4427.224143
4429.172238
4429.290198
4429.948900
4430.953017
4431.439700
4430.944101
4429.070229
4428.003103
4425.521608
4426.145186
4426.937310
4430.687680
4432.458502
4432.465266
4429.745786
4430.870687
4429.444335
4429.414498
4428.182133
4427.639484
4428.287037
4429.787206
4430.998221
4433.048704
4432.996520
4431.262253
4428.581623
4425.790410
4427.826069
4429.366130
4429.210584
4429.354601
4429.848609
4430.829709
4431.532834
4430.352965
4429.359500
4427.109930
4425.994448
4425.478451
4427.150819
4429.854960
4432.990915
4430.480049
4429.745362
4427.080833
4429.268122
4429.403950
4427.936924
4427.408076
4428.109815
4429.392974
4430.928169
4432.676584
4432.940600
4431.097256
4428.185947
4425.680932
4426.985524
4427.560940
4428.412990
4429.103178
4429.518544
4430.842548
4431.214084
4430.314428
4428.928486
4427.257873
4425.532959
4425.778468
4426.501282
4430.142759
4432.398916
4432.009509
4429.120108
4430.804218
4450.432910
4438.115698
4439.309635
4426.669045
4421.403641
4448.939063
4423.669164
4415.678675
4406.003924
4460.742088
4463.729721
4400.233783
4434.889472
4463.808372
4431.284393
4424.908674
4428.970393
4429.125852
4428.066233
4426.715021
4428.293063
4428.864593
4430.854492
4432.382737
4432.642868
4430.753721
4428.297328
4425.243901
4427.825289
4429.145920
4430.479930
4434.632441
4419.120211
4422.695422
4425.703155
4422.343895
4434.186302
4438.087963
4432.063092
4400.749953
4399.220354
4414.759640
4428.990222
4435.035428
4378.473374
4416.462987
4410.969029
4428.664768
4429.418991
4430.554054
4431.110259
4430.123071
4428.588434
4427.333848
4425.105510
4426.016061
4425.996317
4429.611295
4432.380830
4431.027419
4429.154279
4429.439787
4441.202157
4441.580800
4439.769383
4422.827390
4403.977721
4445.993253
4414.455684
4425.803548
4407.755711
4431.569832
4438.684014
4443.050527
4436.047509
4433.877452
4443.778241
4424.094354
4428.758029
4429.231074
4427.582870
4426.928597
4427.521755
4429.332534
4429.895246
4432.788644
4431.445277
4431.073978
4427.619727
4424.593841
4426.901216
4426.359415
4429.024777
4430.967207
4437.634993
4417.118081
4390.555195
4394.397712
4445.786447
4441.242195
4422.837638
4436.283816
4457.508746
4438.555217
4437.356876
4366.395484
4395.760777
4443.289377
4452.364525
4428.407121
4429.501428
4430.163179
4431.092215
4429.949273
4428.520689
4426.995832
4425.213037
4425.618566
4425.702858
4428.753578
4432.370441
4429.481790
4427.706573
4427.473993
4451.964177
4400.414760
4428.626175
4448.539172
4443.088017
4436.126778
4438.621571
4466.321489
4419.005973
4434.650344
4386.457349
4448.540370
4411.057479
4419.403081
4432.435419
4421.456179
4428.284939
4429.095694
4427.428878
4426.840276
4427.251964
4429.289148
4429.696592
4432.387816
4431.344450
4430.531371
4427.588022
4424.232624
4426.270608
4427.572788
4424.994066
4433.928175
4422.199543
4413.444691
4408.858678
4470.557790
4395.267377
4426.895734
4441.233573
4445.483163
4398.319950
4394.596639
4410.446054
4425.580995
4422.919105
4448.813406
4417.740000
4428.408889
4429.499715
4429.914682
4431.175983
4429.622285
4428.703287
4426.426124
4425.658504
4425.314944
4425.757589
4428.090459
4432.503829
4428.660529
4428.276416
4428.513058
4427.976426
4458.458705
4473.359603
4417.840920
4356.956267
4440.879662
4437.583146
4430.536837
4417.708047
4442.248481
4433.757285
4460.499988
4446.643553
4413.921728
4491.325498
4411.366476
4428.039705
4428.978723
4427.290342
4426.593788
4427.061493
4428.943512
4429.512038
4432.257208
4431.064362
4430.630013
4427.562393
4424.251368
4427.127300
4426.670555
4426.013053
4403.603368
4459.841092
4432.820791
4385.162568
4394.659492
4485.367699
4423.775456
4425.401636
4435.877777
4421.909762
4440.238004
4387.493939
4461.153642
4388.933368
4437.273023
4422.540951
4428.163514
4429.111633
4430.060182
4430.714870
4429.804496
4428.076520
4426.791736
4425.269580
4426.284703
4424.934780
4428.582410
4432.287655
4429.459860
4428.505413
4426.545844
4432.385518
4428.077615
4416.940163
4411.083250
4440.274622
4436.995388
4425.743003
4420.502152
4466.830695
4432.546225
4423.184697
4409.606605
4463.021959
4447.731274
4403.402170
4401.411533
4428.023315
4428.577159
4427.579384
4425.990502
4427.304738
4428.220966
4429.782332
4431.726127
4431.282258
4430.385817
4427.521369
4424.260871
4426.572331
4426.300356
4427.630255
4446.830571
4426.947287
4423.020823
4480.401727
4368.210380
4418.968892
4423.030286
4440.227701
4401.261755
4451.072768
4450.777566
4445.992137
4401.863426
4429.370071
4406.617838
4441.599062
4427.964856
4428.962374
4429.896039
4430.584638
4429.747993
4427.924986
4426.690370
4425.650373
4426.225489
4424.767001
4428.106580
4432.141797
4429.984560
4427.924816
4427.502840
4416.560433
4447.006313
4395.105445
4461.109786
4454.504679
4433.640031
4452.438079
4479.807700
4405.634974
4433.770708
4426.492411
4447.552831
4467.480557
4400.753975
4464.610553
4403.084350
4427.852333
4428.769454
4427.138530
4426.475188
4426.396608
4428.787568
4429.028102
4431.752505
4430.991100
4430.191083
4427.158085
4423.897929
4425.227583
4426.053249
4424.642843
4429.673153
4481.256021
4448.484055
4388.762773
4426.272263
4424.769865
4426.456599
4440.749395
4453.766295
4445.326838
4460.198897
4416.821972
4423.403939
4413.062020
4418.479105
4426.802785
4427.651743
4429.300432
4429.227227
4430.828062
4429.806464
4427.873700
4426.571476
4426.239081
4425.730242
4424.933441
4427.133611
4432.076450
4428.226329
4427.147642
4424.931322
4414.211135
4419.404188
4434.533213
4417.593412
4411.456201
4438.847703
4443.230667
4432.452992
4444.191442
4431.157090
4439.325679
4447.911364
4419.760534
4419.987591
4483.235531
4442.750292
4427.535470
4428.984910
4426.843080
4426.827447
4425.871469
4429.339325
4428.360783
4432.120946
4430.335880
4430.406715
4426.595068
4424.151437
4424.719992
4425.383064
4426.066166
4423.055422
4437.544597
4405.829297
4455.513237
4457.040209
4422.843529
4426.631176
4436.789067
4415.776553
4435.270263
4417.121270
4456.437322
4420.900291
4403.519095
4397.206483
4451.306645
4427.448734
4429.540009
4428.780588
4431.417514
4429.135456
4428.392626
4425.814961
4426.959960
4425.405270
4425.266486
4426.680330
4431.950434
4428.385139
4427.838273
4424.534532
4423.242757
4429.510016
4404.218522
4463.257045
4402.782578
4434.159183
4418.323682
4444.713978
4418.433730
4434.226706
4408.639599
4415.666406
4457.449693
4452.225651
4411.810964
4399.091422
4427.642106
4428.848827
4427.089066
4426.332364
4426.345996
4428.352251
4428.716138
4432.230420
4430.107395
4430.714131
4426.829307
4424.832374
4424.128348
4425.781221
4423.892120
4436.146000
4434.591340
4420.079780
4422.613027
4427.148739
4444.178771
4417.774286
4427.612168
4427.166662
4451.538608
4446.200736
4425.031344
4441.702005
4413.540055
4423.492755
4429.382345
4427.661569
4428.998198
4429.413610
4430.902565
4429.231396
4428.211838
4426.348041
4426.536756
4426.854117
4424.867793
4426.552506
4431.994484
4429.952140
4427.327903
4426.338247
4417.224205
4418.264275
4439.773991
4450.357837
4394.165246
4427.790461
4440.533165
4410.618707
4448.515996
4425.600304
4447.227066
4378.429476
4418.331705
4436.133625
4396.585176
4411.873905
4427.962759
4428.765195
4427.262556
4426.168002
4426.296453
4427.775017
4429.225815
4431.654421
4430.566907
4429.995686
4427.935152
4423.833932
4425.170239
4425.056940
4426.005467
4445.602943
4448.430356
4438.516437
4455.259270
4381.271900
4417.825761
4440.699345
4360.627750
4469.371033
4446.423418
4441.933512
4397.153236
4453.732294
4447.557624
4399.195016
4421.010570
4427.718653
4428.557726
4429.644986
4430.117592
4430.206117
4427.127876
4427.371547
4426.063365
4427.551875
4424.120867
4426.385505
4432.490044
4428.719906
4426.531935
4426.632580
4437.545451
4421.890524
4420.635280
4460.509259
4377.856502
4434.446282
4439.872552
4432.043569
4474.791585
4459.503189
4470.224318
4418.284442
4411.167426
4450.293991
4361.995957
4420.679788
4427.732225
4429.117538
4427.081596
4426.735883
4425.353739
4429.041305
4428.410837
4431.917051
4430.883078
4430.704727
4427.026208
4424.518247
4423.758983
4423.922428
4424.859643
4432.796970
4429.421155
4412.586947
4384.372191
4422.826173
4444.204142
4431.299890
4422.105498
4381.814490
4452.819685
4416.187788
4417.619771
4408.020640
4408.364619
4422.137073
4446.960095
4427.478574
4429.369371
4428.157340
4431.723662
4429.661387
4428.379562
4426.851060
4428.302567
4426.049026
4424.435099
4427.066549
4430.924294
4428.120661
4427.531897
4423.851355
4429.248270
4429.144012
4428.483553
4433.796340
4458.245507
4420.896275
4426.794921
4474.529280
4427.333005
4424.286796
4410.517658
4393.097361
4476.900929
4418.111748
4574.533023
4410.442795
4427.596725
4428.936354
4427.852396
4426.329776
4426.121671
4428.679915
4428.013659
4432.603488
4430.156810
4430.185549
4426.621869
4426.017704
4423.615475
4425.279408
4422.140157
4425.546183
4420.955764
4438.469261
4428.053513
4463.350430
4465.997820
4439.338271
4445.359645
4485.673714
4447.655019
4443.792900
4450.375730
4449.851527
4435.224653
4271.127634
4426.952187
4427.899031
4429.551043
4428.315740
4431.915239
4429.024697
4428.647566
4425.664119
4428.654269
4424.793890
4425.708707
4426.283852
4430.164052
4427.259899
4426.796636
4421.770566
4420.522898
4416.149355
4394.706183
4405.556720
4448.737306
4412.701502
4441.270452
4441.814657
4438.420988
4420.146408
4399.953445
4440.632825
4453.439772
4426.078060
4383.939770
4401.489326