# vtk DataFile Version 2.0
mfree iwf
ASCII

DATASET UNSTRUCTURED_GRID
POINTS 9528 float
0.000000 0.000445 0.000000
0.000000 0.000450 0.000000
0.000000 0.000455 0.000000
0.000000 0.000460 0.000000
0.000000 0.000465 0.000000
0.000000 0.000470 0.000000
0.000000 0.000475 0.000000
0.000000 0.000480 0.000000
0.000000 0.000485 0.000000
0.000001 0.000490 0.000000
-0.000000 0.000496 0.000000
0.000002 0.000500 0.000000
0.000351 0.000731 0.000000
0.000356 0.000739 0.000000
0.000388 0.000772 0.000000
0.000393 0.000776 0.000000
0.000393 0.000776 0.000000
0.000397 0.000780 0.000000
0.000403 0.000785 0.000000
0.000402 0.000783 0.000000
0.000411 0.000792 0.000000
0.000433 0.000809 0.000000
0.000438 0.000811 0.000000
0.000443 0.000813 0.000000
0.000447 0.000815 0.000000
0.000452 0.000816 0.000000
0.000456 0.000818 0.000000
0.000462 0.000819 0.000000
0.000465 0.000820 0.000000
0.000472 0.000822 0.000000
0.000478 0.000824 0.000000
0.000502 0.000834 0.000000
0.000005 0.000445 0.000000
0.000005 0.000450 0.000000
0.000005 0.000455 0.000000
0.000005 0.000460 0.000000
0.000005 0.000465 0.000000
0.000005 0.000470 0.000000
0.000005 0.000475 0.000000
0.000005 0.000480 0.000000
0.000005 0.000485 0.000000
0.000006 0.000489 0.000000
0.000004 0.000496 0.000000
0.000006 0.000499 0.000000
0.000385 0.000768 0.000000
0.000397 0.000771 0.000000
0.000418 0.000795 0.000000
0.000423 0.000799 0.000000
0.000427 0.000802 0.000000
0.000430 0.000804 0.000000
0.000433 0.000805 0.000000
0.000438 0.000806 0.000000
0.000443 0.000808 0.000000
0.000449 0.000810 0.000000
0.000455 0.000812 0.000000
0.000461 0.000815 0.000000
0.000468 0.000815 0.000000
0.000475 0.000819 0.000000
0.000479 0.000820 0.000000
0.000484 0.000821 0.000000
0.000492 0.000828 0.000000
0.000495 0.000829 0.000000
0.000490 0.000828 0.000000
0.000500 0.000832 0.000000
0.000010 0.000445 0.000000
0.000011 0.000450 0.000000
0.000010 0.000455 0.000000
0.000011 0.000460 0.000000
0.000009 0.000465 0.000000
0.000011 0.000469 0.000000
0.000010 0.000475 0.000000
0.000011 0.000480 0.000000
0.000009 0.000486 0.000000
0.000012 0.000490 0.000000
0.000009 0.000497 0.000000
0.000011 0.000498 0.000000
0.000389 0.000767 0.000000
0.000401 0.000771 0.000000
0.000410 0.000784 0.000000
0.000413 0.000789 0.000000
0.000417 0.000792 0.000000
0.000421 0.000796 0.000000
0.000423 0.000789 0.000000
0.000431 0.000795 0.000000
0.000433 0.000799 0.000000
0.000440 0.000802 0.000000
0.000445 0.000804 0.000000
0.000451 0.000808 0.000000
0.000455 0.000805 0.000000
0.000461 0.000806 0.000000
0.000465 0.000812 0.000000
0.000473 0.000816 0.000000
0.000487 0.000822 0.000000
0.000490 0.000824 0.000000
0.000498 0.000827 0.000000
0.000504 0.000826 0.000000
0.000015 0.000445 0.000000
0.000016 0.000450 0.000000
0.000014 0.000455 0.000000
0.000016 0.000459 0.000000
0.000015 0.000466 0.000000
0.000017 0.000470 0.000000
0.000014 0.000475 0.000000
0.000017 0.000480 0.000000
0.000014 0.000485 0.000000
0.000017 0.000488 0.000000
0.000014 0.000495 0.000000
0.000017 0.000498 0.000000
0.000025 0.000500 0.000000
0.000402 0.000775 0.000000
0.000411 0.000784 0.000000
0.000416 0.000782 0.000000
0.000425 0.000792 0.000000
0.000426 0.000798 0.000000
0.000435 0.000796 0.000000
0.000439 0.000797 0.000000
0.000445 0.000795 0.000000
0.000450 0.000803 0.000000
0.000463 0.000802 0.000000
0.000459 0.000810 0.000000
0.000469 0.000809 0.000000
0.000473 0.000811 0.000000
0.000478 0.000813 0.000000
0.000480 0.000815 0.000000
0.000486 0.000816 0.000000
0.000493 0.000818 0.000000
0.000496 0.000821 0.000000
0.000505 0.000822 0.000000
0.000020 0.000445 0.000000
0.000021 0.000450 0.000000
0.000019 0.000456 0.000000
0.000021 0.000460 0.000000
0.000018 0.000465 0.000000
0.000022 0.000467 0.000000
0.000019 0.000475 0.000000
0.000022 0.000479 0.000000
0.000020 0.000487 0.000000
0.000022 0.000491 0.000000
0.000021 0.000497 0.000000
0.000022 0.000499 0.000000
0.000039 0.000500 0.000000
0.000407 0.000771 0.000000
0.000410 0.000776 0.000000
0.000415 0.000778 0.000000
0.000417 0.000787 0.000000
0.000427 0.000786 0.000000
0.000435 0.000790 0.000000
0.000444 0.000799 0.000000
0.000440 0.000792 0.000000
0.000452 0.000798 0.000000
0.000457 0.000794 0.000000
0.000465 0.000799 0.000000
0.000468 0.000801 0.000000
0.000475 0.000807 0.000000
0.000480 0.000807 0.000000
0.000490 0.000810 0.000000
0.000490 0.000814 0.000000
0.000499 0.000816 0.000000
0.000500 0.000820 0.000000
0.000507 0.000819 0.000000
0.000025 0.000445 0.000000
0.000025 0.000450 0.000000
0.000026 0.000454 0.000000
0.000025 0.000459 0.000000
0.000025 0.000467 0.000000
0.000026 0.000471 0.000000
0.000023 0.000476 0.000000
0.000027 0.000481 0.000000
0.000023 0.000484 0.000000
0.000026 0.000488 0.000000
0.000026 0.000492 0.000000
0.000027 0.000500 0.000000
0.000369 0.000753 0.000000
0.000405 0.000776 0.000000
0.000407 0.000779 0.000000
0.000422 0.000784 0.000000
0.000426 0.000782 0.000000
0.000431 0.000790 0.000000
0.000440 0.000787 0.000000
0.000434 0.000785 0.000000
0.000446 0.000791 0.000000
0.000451 0.000794 0.000000
0.000455 0.000801 0.000000
0.000459 0.000798 0.000000
0.000466 0.000806 0.000000
0.000473 0.000803 0.000000
0.000484 0.000811 0.000000
0.000484 0.000806 0.000000
0.000495 0.000814 0.000000
0.000493 0.000808 0.000000
0.000502 0.000814 0.000000
0.000508 0.000814 0.000000
0.000030 0.000445 0.000000
0.000030 0.000450 0.000000
0.000029 0.000457 0.000000
0.000033 0.000461 0.000000
0.000029 0.000464 0.000000
0.000030 0.000468 0.000000
0.000032 0.000472 0.000000
0.000030 0.000477 0.000000
0.000031 0.000486 0.000000
0.000031 0.000492 0.000000
0.000033 0.000497 0.000000
0.000031 0.000499 0.000000
0.000049 0.000500 0.000000
0.000399 0.000765 0.000000
0.000418 0.000774 0.000000
0.000421 0.000779 0.000000
0.000423 0.000776 0.000000
0.000431 0.000782 0.000000
0.000443 0.000784 0.000000
0.000451 0.000790 0.000000
0.000446 0.000787 0.000000
0.000458 0.000790 0.000000
0.000463 0.000793 0.000000
0.000474 0.000799 0.000000
0.000472 0.000796 0.000000
0.000478 0.000801 0.000000
0.000483 0.000799 0.000000
0.000486 0.000804 0.000000
0.000498 0.000803 0.000000
0.000498 0.000809 0.000000
0.000504 0.000810 0.000000
0.000509 0.000810 0.000000
0.000035 0.000445 0.000000
0.000035 0.000450 0.000000
0.000037 0.000454 0.000000
0.000034 0.000456 0.000000
0.000035 0.000466 0.000000
0.000037 0.000472 0.000000
0.000032 0.000479 0.000000
0.000042 0.000479 0.000000
0.000035 0.000482 0.000000
0.000034 0.000488 0.000000
0.000038 0.000491 0.000000
0.000036 0.000498 0.000000
0.000346 0.000719 0.000000
0.000367 0.000751 0.000000
0.000412 0.000767 0.000000
0.000422 0.000771 0.000000
0.000433 0.000777 0.000000
0.000433 0.000772 0.000000
0.000439 0.000782 0.000000
0.000445 0.000779 0.000000
0.000453 0.000787 0.000000
0.000454 0.000782 0.000000
0.000463 0.000785 0.000000
0.000468 0.000793 0.000000
0.000472 0.000791 0.000000
0.000485 0.000796 0.000000
0.000490 0.000801 0.000000
0.000492 0.000796 0.000000
0.000494 0.000804 0.000000
0.000502 0.000804 0.000000
0.000506 0.000805 0.000000
0.000511 0.000805 0.000000
0.000040 0.000445 0.000000
0.000040 0.000450 0.000000
0.000038 0.000462 0.000000
0.000041 0.000456 0.000000
0.000041 0.000463 0.000000
0.000039 0.000468 0.000000
0.000042 0.000473 0.000000
0.000037 0.000477 0.000000
0.000041 0.000487 0.000000
0.000043 0.000491 0.000000
0.000041 0.000497 0.000000
0.000045 0.000498 0.000000
0.000325 0.000575 0.000000
0.000394 0.000767 0.000000
0.000406 0.000765 0.000000
0.000423 0.000763 0.000000
0.000428 0.000776 0.000000
0.000437 0.000778 0.000000
0.000441 0.000776 0.000000
0.000449 0.000782 0.000000
0.000458 0.000784 0.000000
0.000463 0.000790 0.000000
0.000462 0.000780 0.000000
0.000473 0.000786 0.000000
0.000477 0.000792 0.000000
0.000484 0.000790 0.000000
0.000480 0.000793 0.000000
0.000488 0.000795 0.000000
0.000496 0.000798 0.000000
0.000501 0.000797 0.000000
0.000507 0.000800 0.000000
0.000513 0.000801 0.000000
0.000045 0.000445 0.000000
0.000046 0.000450 0.000000
0.000046 0.000456 0.000000
0.000045 0.000461 0.000000
0.000045 0.000467 0.000000
0.000046 0.000473 0.000000
0.000045 0.000479 0.000000
0.000040 0.000484 0.000000
0.000052 0.000486 0.000000
0.000046 0.000483 0.000000
0.000048 0.000493 0.000000
0.000050 0.000498 0.000000
0.000325 0.000582 0.000000
0.000384 0.000766 0.000000
0.000414 0.000772 0.000000
0.000427 0.000770 0.000000
0.000429 0.000768 0.000000
0.000442 0.000772 0.000000
0.000447 0.000775 0.000000
0.000452 0.000776 0.000000
0.000457 0.000778 0.000000
0.000467 0.000782 0.000000
0.000468 0.000787 0.000000
0.000478 0.000788 0.000000
0.000472 0.000781 0.000000
0.000486 0.000786 0.000000
0.000491 0.000790 0.000000
0.000497 0.000792 0.000000
0.000501 0.000792 0.000000
0.000505 0.000795 0.000000
0.000509 0.000796 0.000000
0.000514 0.000796 0.000000
0.000050 0.000445 0.000000
0.000051 0.000450 0.000000
0.000048 0.000455 0.000000
0.000052 0.000459 0.000000
0.000050 0.000464 0.000000
0.000051 0.000472 0.000000
0.000050 0.000468 0.000000
0.000050 0.000477 0.000000
0.000047 0.000488 0.000000
0.000053 0.000491 0.000000
0.000058 0.000492 0.000000
0.000053 0.000498 0.000000
0.000328 0.000662 0.000000
0.000383 0.000759 0.000000
0.000396 0.000764 0.000000
0.000420 0.000766 0.000000
0.000434 0.000766 0.000000
0.000436 0.000769 0.000000
0.000442 0.000768 0.000000
0.000447 0.000769 0.000000
0.000460 0.000772 0.000000
0.000456 0.000773 0.000000
0.000467 0.000774 0.000000
0.000476 0.000778 0.000000
0.000478 0.000782 0.000000
0.000482 0.000783 0.000000
0.000489 0.000786 0.000000
0.000496 0.000783 0.000000
0.000495 0.000787 0.000000
0.000504 0.000789 0.000000
0.000510 0.000791 0.000000
0.000516 0.000791 0.000000
0.000054 0.000445 0.000000
0.000056 0.000450 0.000000
0.000055 0.000455 0.000000
0.000055 0.000462 0.000000
0.000056 0.000466 0.000000
0.000055 0.000472 0.000000
0.000056 0.000477 0.000000
0.000057 0.000480 0.000000
0.000053 0.000483 0.000000
0.000057 0.000486 0.000000
0.000056 0.000497 0.000000
0.000060 0.000497 0.000000
0.000334 0.000685 0.000000
0.000381 0.000765 0.000000
0.000389 0.000762 0.000000
[...]
POINT_DATA 9528
SCALARS density float 1
LOOKUP_TABLE default
4430.261780
4428.270922
4425.391318
4420.977637
4420.219826
4430.298194
4436.982940
4436.929466
4445.792077
4424.703606
4433.325607
4399.161088
4423.366634
4440.161989
4433.143147
4429.199761
4440.034524
4441.445739
4449.760507
4445.738005
4422.471270
4423.784937
4414.231867
4450.413006
4428.367033
4418.716454
4449.135961
4439.276585
4416.060265
4456.195803
4436.866649
4447.498553
4426.985020
4430.298468
4427.227974
4441.822681
4444.816834
4424.144263
4421.396366
4414.053218
4392.828613
4427.369077
4438.087125
4402.336017
4423.927662
4433.010278
4414.447999
4401.265365
4420.066099
4413.720643
4420.733606
4455.507570
4415.831370
4432.286175
4434.178305
4386.455346
4418.856505
4396.783594
4392.910977
4420.044060
4404.502439
4409.302490
4411.897481
4417.557658
4422.111101
4432.223844
4437.595892
4403.623322
4426.745651
4408.443590
4458.313161
4404.477183
4485.833531
4359.724523
4474.815550
4406.965433
4407.318256
4486.081869
4437.873412
4387.724599
4407.776754
4419.660771
4426.430932
4395.121841
4447.070045
4405.469173
4405.264019
4423.120721
4421.192904
4405.052467
4469.200056
4398.731892
4452.267356
4445.885931
4448.119838
4417.862251
4435.939369
4444.125267
4443.825905
4436.202771
4452.159291
4408.373611
4455.960415
4357.844513
4474.450577
4410.041857
4515.366198
4396.259520
4437.504964
4346.032602
4432.425300
4408.854633
4456.573441
4454.652682
4421.624910
4439.044767
4421.131795
4431.549231
4446.409827
4437.569891
4412.112042
4457.495021
4459.953280
4487.546248
4453.419745
4336.937909
4511.386885
4450.440727
4434.645188
4422.758016
4434.964915
4413.888721
4448.010613
4424.459150
4439.035394
4458.928085
4476.928297
4355.812411
4480.531044
4441.745361
4421.307533
4387.568718
4463.579585
4412.742861
4539.511733
4446.930089
4484.798971
4443.652450
4421.374374
4411.361473
4442.262206
4443.143624
4417.555258
4427.074780
4386.986613
4442.125191
4453.245435
4443.645792
4353.417515
4437.651977
4429.162286
4443.295346
4427.284425
4441.913744
4448.744771
4401.233497
4446.810986
4368.535136
4417.821357
4466.672831
4406.069849
4429.543916
4426.168038
4473.667300
4378.626526
4351.421006
4464.176163
4384.662021
4421.772785
4400.507219
4429.923946
4426.024602
4444.916912
4409.433977
4416.492585
4456.480413
4358.740614
4489.877203
4463.510486
4390.265808
4422.720241
4421.581603
4432.417451
4421.341101
4423.411652
4432.486886
4422.283159
4456.450452
4418.282742
4455.647664
4440.334277
4420.398850
4455.171374
4425.975655
4415.570330
4426.455618
4409.611703
4464.738768
4409.711216
4420.069341
4448.654570
4442.153187
4431.158444
4408.774472
4420.206190
4444.700800
4414.060923
4413.213600
4413.122061
4440.361780
4481.234282
4404.355430
4428.758338
4441.954564
4435.306857
4423.009559
4438.983441
4436.725768
4413.534784
4424.255610
4455.326734
4419.239391
4407.935368
4435.665678
4411.646304
4444.567362
4422.100205
4419.348251
4426.960583
4432.858375
4448.354237
4441.396517
4446.792066
4416.850911
4436.124358
4450.432208
4423.040507
4443.544769
4429.354081
4445.080284
4382.312914
4464.500740
4445.427088
4408.711888
4421.326469
4413.686819
4428.391678
4420.377860
4430.845004
4387.083509
4451.328696
4444.510856
4435.132405
4423.063633
4452.434566
4438.263614
4438.918914
4422.404468
4591.980477
4400.130767
4439.273709
4438.469752
4402.839788
4435.316046
4424.504441
4410.285365
4441.567119
4438.056114
4447.770313
4408.471639
4437.087566
4399.200944
4434.656953
4429.783366
4434.527829
4379.481808
4445.605901
4441.384935
4430.378224
4429.464824
4448.905342
4410.339680
4397.960588
4422.098619
4459.169043
4428.540796
4452.695617
4416.401614
4473.358236
4438.278708
4538.818143
4420.138639
4438.387862
4454.424376
4441.490231
4426.494747
4447.079279
4441.140175
4413.372640
4420.685405
4435.469609
4433.048068
4432.244895
4444.093248
4410.040571
4402.956209
4447.550132
4473.035628
4396.679910
4420.927520
4433.451892
4404.099393
4444.914316
4424.557277
4422.337636
4448.694587
4448.153417
4365.455142
4369.248139
4407.620911
4516.898282
4415.833392
4426.610121
4501.110851
4434.870586
4442.858621
4445.582236
4424.780211
4461.482675
4414.361014
4463.249211
4430.891237
4441.106515
4407.782798
4449.036611
4425.941803
4450.542536
4419.171963
4449.605539
4412.400447
4422.866904
4434.951267
4430.058039
4424.028139
4423.951360
4454.408236
4398.752749
4426.801709
4425.364544
4438.204559
4479.377764
4353.101639
4428.195523
4396.680964
4431.831432
4404.030133
4489.937002
4426.173251
4447.447930
4407.173096
4438.544657
4445.353834
4415.107048
4434.724303
4439.664638
4415.482273
4418.863123
4426.649588
4431.149392
4439.812889
4448.611805
4427.325760
4441.222079
4415.359665
4419.066053
4412.537083
4465.083392
4444.927060
4418.528426
4450.983466
4444.395683
4412.921263
4484.261389
4415.592210
4440.749303
4432.770920
4413.158048
4434.485365
4438.444135
4401.005900
4374.585088
4459.643453
4423.692540
4450.015947
4398.633533
4428.015767
4442.850078
4443.116345
4423.612903
4429.903093
4464.957525
4457.333403
4424.231065
4418.385464
4428.444327
4431.303330
4439.112020
4425.014456
4401.494911
4451.490114
4433.861274
4419.016572
4403.583136
4439.014111
4455.647163
4363.962348
4466.309370
4428.966913
4422.757724
4407.631034
4433.821639
4426.459639
4462.186566
4409.608900
4416.384006
4417.962842
4402.976506
4425.616888
4448.725543
4451.012552
4401.005301
4424.804577
4413.994895
4412.502901
4427.510459
4449.569983
4418.434654
4425.316258
4433.096488
4437.735648
4405.895574
4398.908014
4410.531282
4457.095526
4404.319810
4435.542777
4376.396831
4437.577894
4430.710861
4447.966294
4560.645790
4421.481322
4417.226718
4469.914680
4443.013789
4419.636710
4432.654682
4476.523910
4371.996396
4436.235925
4425.933736
4416.568543
4438.121832
4443.463996
4427.715233
4455.212038
4432.534040
4418.665861
4425.705539
4430.211622
4437.259752
4410.401178
4429.798185
4436.319211
4452.072897
4409.896237
4446.738777
4462.180009
4480.389912
4335.380353
4445.019320
4451.591990
4426.673316
4417.609371
4417.525960
4325.231989
4441.100231
4457.544244
4436.863509
4443.780231
4441.765296
4418.333800
4448.864365
4453.748502
4447.792575
4449.194076
4429.765945
4407.994550
4424.304926
4430.253350
4430.650834
4427.161404
4417.144339
4423.972620
4436.224377
4411.992192
4419.647148
4408.606145
4462.349902
4400.951651
4448.831894
4483.250599
4419.438223
4417.965997
4415.788262
4432.321924
4454.376758
4432.937524
4446.056480
4408.843116
4427.806428
4427.395484
4444.658183
4458.105688
4433.560411
4445.565951
4448.020031
4408.521094
4418.558967
4431.345498
4440.550833
4446.174635
4415.928685
4433.780139
4439.850694
4427.921826
4417.870891
4467.473916
4476.281707
4414.161786
4427.823000
4426.119126
4392.406865
4358.195059
4431.346074
4466.680296
4530.752231
4526.265888
4464.436647
4435.746644
4411.021156
4385.709290
4466.574320
4467.718576
4454.335064
4488.305901
4419.759826
4399.257062
4433.396260
4455.238031
4393.983391
4426.964529
4403.721723
4438.601283
4428.679555
4425.424693
4423.518744
4427.997671
4447.511205
4413.950349
4396.957060
4465.473603
4445.099913
4468.996921
4448.212578
4439.891834
4392.831208
4428.213440
4419.634373
4416.024818
4431.436402
4414.232781
4438.152513
4412.656771
4413.900467
4411.720100
4399.435835
4435.901977
4396.205308
4423.078927
4447.402823
4434.567576
4450.304205
4439.055500
4441.181586
4426.110570
4425.862437
4423.994239
4443.191701
4430.438235
4400.567622
4432.237122
4431.983619
4384.095169
4425.808927
4399.710139
4477.224114
4442.595001
4432.889183
4438.871336
4413.241955
4419.988427
4463.754231
4427.239392
4409.180385
4439.332386
4435.068240
4390.304027
4497.836658
4411.337055
4453.593387
4402.769663
4428.005564
4413.406983
4438.842780
4398.648709
4419.347916
4430.537101
4435.153981
4427.210486
4417.383265
4422.221731
4442.006755
4422.821787
4439.287461
4457.279303
4392.773496
4383.581096
4449.997174
4470.341330
4380.867045
4542.272922
4429.485761
4418.886370
4422.173527
4459.298779
4430.837812
4442.070643
4435.403013
4452.914766
4437.862369
4466.090280
4469.470884
4390.415021
4468.602081
4448.271205
4436.514636
4464.101872
4447.516878
4401.857232
4440.215904
4419.877819
4448.096598
4433.057464
4412.691859
4422.321162
4441.246318
4451.637616
4388.277971
4449.286118
4483.207337
4370.997288
4427.717782
4434.958220
4444.123645
4430.028578
4416.686981
4401.554592
4439.991598
4457.774184
4485.027901
4447.397430
4404.382577
4349.831738
4448.143480
4456.469233
4470.103790
4419.479492
4414.554272
4422.589959
4430.190438
4418.830296
4438.056017
4434.836986
4427.287418
4423.220046
4445.709731
4441.635129
4406.996431
4404.662026
4436.873633
4392.153112
4449.510636
4389.484265
4386.526972
4475.552516
4430.157448
4440.443080
4421.197628
4468.045636
4457.392989
4443.041842
4431.087593
4408.911389
4427.384100
4367.485351
4340.472851
4445.320929
4418.115569
4416.184874
4455.972165
4423.844538
4470.560078
4417.371700
4414.182532
4426.346176
4435.076612
4444.473148
4410.729411
4417.224321
4426.465729
4434.804289
4407.086307
4455.060161
4466.552049
4455.523476
4412.562360
4429.342122
4421.136417
4407.333490
4384.456513
4359.102182
4459.905136
4457.972005
4418.297389
4425.666179
4458.858815
4434.539304
4420.503083
4444.572511
4458.669387
4450.886213
4439.066643
4434.383731
4412.711381
4416.427976
4454.615987
4423.490950
4419.813980
4428.941391
4428.585476
4429.004129
4429.450824
4429.577456
4429.926403
4430.021014
4430.425989
4430.562706
4430.984279
4431.019352
4431.075743
4430.701345
4430.043233
4422.809592
4428.010634
4428.019655
4428.833337
4429.347533
4429.573774
4430.060830
4430.091623
4430.386219
4430.130294
4430.279366
4430.159216
4430.424534
4430.698982
4431.002206
4425.039794
4427.842705
4427.669500
4428.132246
4428.821277
4428.690002
4429.415729
4429.222186
4429.926778
4430.051517
4430.720687
4430.501117
4430.446017
4430.393459
4429.231964
4426.016096
4428.015034
4428.080361
4428.514537
4428.968229
4429.227416
4429.542542
4429.563642
4429.863251
4429.306034
4429.356898
4428.959887
4429.307300
4428.877957
4429.892250
4427.114613
4428.133909
4428.081167
4428.103627
4428.558428
4428.343401
4428.986883
4428.758239
4429.337550
4429.393446
4430.241863
4429.507579
4430.204140
4428.074078
4428.769895
4427.319123
4428.244455
4428.509776
4428.201222
4429.168059
4428.661546
4429.527258
4428.869572
4429.678418
4428.626136
4428.934639
4428.300989
4428.585751
4427.709735
4429.224088
4427.488591
4428.362867
4428.274559
4428.170528
4428.387382
4428.192161
4428.669150
4428.447450
4428.977224
4428.975391
4429.845469
4429.301075
4429.471546
4427.919100
4429.291036
4427.644031
4428.590640
4428.322031
4428.440974
4428.790783
4428.757852
4428.995150
4428.882570
4429.055733
4428.608597
4428.542688
4427.910853
4428.937844
4427.466850
4427.295517
4427.476419
4428.471134
4428.277517
4428.099089
4428.275103
4428.013438
4428.415510
4428.200848
4428.700757
4428.785244
4429.571526
4429.711500
4429.446463
4429.002891
4429.479816
4427.729095
4428.640244
4428.231387
4428.468859
4428.538426
4428.683646
4428.666753
4428.734068
4428.594263
4428.608655
4428.144666
4428.409252
4429.029030
4429.322765
4429.712522
4427.338868
4428.588708
4428.024656
4428.122764
4427.957925
4427.965259
4427.959158
4427.993420
4428.322330
4428.482236
4429.445619
4429.377437
4430.431280
4429.952686
4430.289659
4427.411685
4428.648996
4428.037387
4428.324332
4428.375879
4428.338095
4428.460148
4428.248115
4428.434604
4427.973862
4428.030588
4427.868205
4428.660052
4429.274723
4431.326486
4427.400135
4428.449878
4427.971413
4428.029111
4427.668140
4427.817545
4427.541326
4427.858148
4427.644084
4428.401415
4428.272444
4429.027991
4429.107192
4429.369703
4430.120125
4427.920967
4433.766181
4431.204424
4453.998228
4421.584860
4462.300096
4431.438963
4419.622562
4393.571853
4411.873152
4412.009116
4435.815225
4409.409374
4440.046102
4426.660521
4415.795311
4427.367112
4428.492886
4427.986136
4428.032033
4428.192388
4428.088655
4428.069693
4427.958367
4427.847826
4427.257594
4427.315467
4426.823151
4426.609010
4427.688596
4427.597021
4428.845795
4441.580750
4415.485992
4414.606724
4414.628984
4444.333510
4422.462772
4384.883348
4445.722539
4431.307434
4409.789969
4458.692192
4417.256226
4463.290801
4390.767859
4398.841158
4426.947716
4428.213009
4427.892733
4427.679290
4427.688873
4427.083579
4427.653339
4426.752639
4427.591710
4427.163392
4427.913078
4427.331191
4428.289748
4426.020445
4428.596364
4425.696022
4452.263893
4417.364702
4438.896992
4406.117332
4447.798388
4428.451766
4406.859805
4436.622349
4432.073034
4452.155171
4427.665239
4414.060353
4434.551423
4390.470131
4445.800970
4427.074413
4428.209451
4428.031571
4427.513992
4428.105697
4427.611621
4427.734429
4427.467558
4427.335364
4426.505663
4426.684119
4425.381972
4425.895175
4423.446369
4426.634825
4417.364420
4413.877408
4400.161096
4374.592996
4404.367232
4445.117038
4433.209858
4461.463805
4399.539272
4412.062349
4449.233604
4422.878679
4396.555095
4389.417378
4425.777982
4433.502281
4426.609074
4428.244181
4427.487963
4427.623841
4427.288596
4426.885317
4427.145838
4426.603196
4426.903327
4426.972507
4426.790349
4426.364010
4426.169214
4424.161931
4421.496058
4438.250705
4454.340908
4403.230110
4464.170474
4461.887537
4431.548947
4494.877554
4418.617159
4399.295698
4458.052390
4435.437365
4458.967492
4404.013346
4394.274032
4435.587548
4410.710776
4426.610306
4428.322477
4427.410776
4427.803074
4427.270642
4427.736632
4427.225268
4427.261110
4426.990237
4425.922502
4425.949084
4425.071463
4424.183972
4423.697023
4422.999610
4421.980744
4409.621748
4444.030010
4447.014098
4488.028377
4384.763261
4455.788833
4421.288696
4438.705336
4383.683795
4386.726966
4425.881676
4412.778879
4451.535736
4451.531124
4425.983894
4426.674735
4427.954676
4427.653890
4427.070335
4427.389047
4426.748076
4426.809684
4426.838025
4426.221659
4427.163349
4425.972491
4426.244249
4426.084479
4423.986703
4424.642038
4446.662359
4436.436776
4458.341628
4390.363413
4341.751595
4435.145746
4475.462510
4590.390303
4445.322040
4443.292321
4414.595474
4418.287527
4459.142402
4416.798576
4476.621803
4391.654511
4426.517388
4428.092916
4427.386158
4427.638437
4427.347833
4427.298761
4427.565285
4426.659056
4427.159485
4425.395523
4426.255761
4424.824242
4424.782397
4425.157292
4424.815960
4433.824415
4418.930424
4445.780198
4407.999135
4404.394375
4471.901058
4456.962267
4444.903569
4410.025912
4408.632025
4455.073598
4386.007261
4426.248643
4460.871012
4441.284959
4438.625811
4426.446103
4427.871556
4427.543236
4427.009610
4427.361322
4426.773363
4426.973974
4426.348453
4426.808186
4426.405991
4426.653437
4426.418054
4426.607396
4426.064654
4426.497019
4426.481838
4450.097275
4401.773065
4430.214659
4440.245394
4431.789661
4400.981252
4428.266946
4432.959771
4442.548488
4406.898757
4391.373941
4430.869057
4456.155204
4410.062564
4406.783818
4426.458486
4427.819445
4427.688776
4427.103540
4427.830346
4426.859109
4427.427384
4426.905510
4426.286069
4425.895392
4425.880813
4424.682069
4426.200666
4424.420778
4426.920505
4421.855752
4436.174271
4433.363035
4442.593430
4377.831537
4411.828000
4378.891892
4441.508551
4425.536902
4405.422772
4405.987463
4438.827728
4326.954762
4417.775152
4492.304718
4440.611371
4426.493243
4427.977321
4427.288312
4427.485036
4426.875308
4426.886709
4426.868131
4425.665960
4426.915230
4425.880245
4426.643109
4426.475077
4425.799572
4424.452142
4425.253664
4433.442603
4433.050385
4435.236816
4427.845203
4437.926560
4427.794550
4462.556752
4468.376408
4425.336663
4419.580847
4436.854494
4425.579312
4460.349059
4471.523060
4399.981291
4388.450085
4426.604086
4427.864312
4427.587836
4427.021592
4427.570708
4426.713954
4426.938712
4426.792613
4426.291514
4425.656923
4426.311239
4424.285477
4425.624576
4424.078123
4423.027844
4446.274642
4448.461982
4428.681579
4427.656047
4405.221281
4420.987120
4430.739015
4476.434712
4472.402749
4420.876820
4420.785078
4391.359518
4432.146875
4394.802062
4396.952700
4468.780324
4426.666117
4427.719038
4427.743502
4426.768166
4427.368742
4426.211383
4427.086173
4425.935610
4426.753484
4426.919894
4426.284401
4426.575425
4425.437244
4425.011248
4426.568526
4435.259220
4398.523108
4425.884652
4409.701154
4395.604366
4451.870361
4450.018435
4455.804808
4432.972508
4415.232107
4434.527434
4433.977232
4433.994347
4401.613349
4466.351072
4471.432084
4426.739823
4428.072786
4427.207210
4427.700015
4426.952535
4427.357668
4427.175681
4426.896276
4427.211166
4425.105844
4426.137727
4424.528086
4425.394443
4424.100894
4426.263952
4444.339116
4406.958915
4416.541684
4443.015343
4422.210743
4422.374785
4475.043352
4449.232352
4452.366877
4444.753937
4446.830765
4448.801775
4429.875862
4427.262658
4428.669444
4451.014208
4426.535292
4427.905032
4427.691249
4426.782913
4427.679386
4426.727195
4427.063559
4426.639035
4426.126474
4426.634030
4426.258574
4425.562535
4426.354905
4425.127635
4424.484684
4427.746084
4425.151831
4411.709883
4431.454772
4450.672295
4445.567317
4414.037667
4492.594538
4444.626385
4467.433079
4428.400674
4420.533992
4422.511480
4421.773499
4402.712218
4418.107916
4426.872289
4427.883259
4427.668965
4427.513713
4427.709743
4427.033159
4427.738549
4426.364245
4427.372851
4425.312913
4426.077109
4425.515387
4425.636772
4425.027255
4425.790235
4418.364724
4429.386327
4446.648647
4407.762813
4352.500751
4425.314653
4579.073295
4480.102083
4451.282702
4470.633584
4445.271676
4440.924491
4431.701618
4402.661553
4459.062265
4419.414465
4426.803265
4428.218424
4427.475052
4427.759181
4427.147175
4427.627965
4427.012104
4427.317453
4426.800311
4427.192045
4427.072421
4426.773831
4426.566706
4425.805636
4426.998280
4429.724319
4423.411255
4417.300796
4482.872675
4368.266440
4428.519826
4456.555936
4465.787435
4511.116564
4433.620118
4470.779177
4445.223663
4438.505134
4430.568828
4388.575166
4424.512903
4426.916674
4428.090681
4427.765880
4427.249671
4428.022125
4427.003820
4427.497349
4426.931276
4426.621118
4425.644697
4425.820073
4424.534911
4426.649590
4425.537303
4423.327997
4447.603806
4449.113490
4462.660704
4397.788055
4381.646818
4395.586764
4473.530506
4472.563870
4473.208814
4401.120756
4455.080807
4432.402396
4482.369395
4440.598776
4474.365308
4420.791783
4427.121228
4427.791821
4428.051676
4427.303548
4427.490164
4426.400070
4427.434285
4425.286986
4426.637988
4425.617337
4426.634406
4426.946659
4426.289820
4424.758146
4429.365738
4439.900446
4412.956443
4417.996555
4432.559689
4441.764846
4377.022194
4487.859916
4458.749006
4457.072546
4419.707990
4431.626418
4395.158879
4382.161710
4442.962677
4455.367135
4421.538178
4427.058466
4428.255746
4427.749150
4427.315287
4427.386201
4427.175632
4426.997559
4427.251603
4427.049180
4426.646632
4426.878029
4425.127205
4426.465727
4423.523875
4426.096824
4446.954493
4437.392230
4423.015481
4420.934130
4438.280141
4394.956368
4593.229972
4466.610272
4462.966963
4437.284244
4434.013739
4407.695964
4373.000740
4400.739744
4333.977389
4424.863602
4427.083604
4428.024217
4427.902298
4427.135681
4428.087205
4426.868130
4428.228438
4426.955123
4427.877560
4427.362647
4427.555562
4425.328782
4426.281123
4426.716701
4423.068784
4448.470415
4447.079541
4439.416019
4452.909592
4423.542958
4468.948621
4497.968862
4448.107685
4462.448876
4464.158153
4466.758213
4429.580827
4393.862969
4452.307168
4520.818399
4409.489424
4427.114406
4428.113722
4428.182805
4427.735219
4428.016542
4427.598850
4427.914417
4426.805109
4427.911813
4425.270842
4424.936634
4424.518412
4424.937080
4423.525848
4427.811711
4432.853267
4431.736141
4420.943054
4419.530855
4428.668840
4451.231683
4455.890582
4463.729437
4463.160861
4457.106088
4439.362639
4445.072851
4419.936427
4439.502534
4405.981953
4441.869910
4427.329650
4428.731326
4427.725765
4428.142086
4427.639788
4427.802398
4426.848065
4427.627268
4425.964711
4426.765183
4425.029289
4423.208363
4425.520654
4424.467730
4425.785787
4419.770919
4418.322903
4413.721077
4443.065148
4466.903961
4455.342254
4465.388464
4463.206412
4449.881498
4440.835025
4468.986081
4443.232142
4446.101743
4425.235230
4392.920396
4404.111819