# vtk DataFile Version 2.0
mfree iwf
ASCII

DATASET UNSTRUCTURED_GRID
POINTS 8712 float
0.000001 0.000445 0.000000
0.000001 0.000450 0.000000
0.000001 0.000455 0.000000
0.000001 0.000460 0.000000
0.000001 0.000465 0.000000
0.000001 0.000470 0.000000
0.000001 0.000475 0.000000
0.000001 0.000480 0.000000
0.000001 0.000485 0.000000
0.000001 0.000490 0.000000
0.000001 0.000496 0.000000
0.000003 0.000500 0.000000
0.000158 0.000567 0.000000
0.000158 0.000576 0.000000
0.000158 0.000605 0.000000
0.000158 0.000612 0.000000
0.000158 0.000612 0.000000
0.000158 0.000616 0.000000
0.000158 0.000625 0.000000
0.000158 0.000624 0.000000
0.000158 0.000633 0.000000
0.000158 0.000662 0.000000
0.000160 0.000668 0.000000
0.000161 0.000673 0.000000
0.000163 0.000677 0.000000
0.000165 0.000682 0.000000
0.000167 0.000686 0.000000
0.000169 0.000692 0.000000
0.000171 0.000695 0.000000
0.000173 0.000701 0.000000
0.000176 0.000708 0.000000
0.000186 0.000733 0.000000
0.000006 0.000445 0.000000
0.000006 0.000450 0.000000
0.000006 0.000455 0.000000
0.000006 0.000460 0.000000
0.000006 0.000465 0.000000
0.000006 0.000470 0.000000
0.000006 0.000475 0.000000
0.000006 0.000480 0.000000
0.000006 0.000485 0.000000
0.000007 0.000490 0.000000
0.000004 0.000496 0.000000
0.000007 0.000499 0.000000
0.000158 0.000601 0.000000
0.000165 0.000613 0.000000
0.000159 0.000642 0.000000
0.000160 0.000648 0.000000
0.000160 0.000652 0.000000
0.000161 0.000657 0.000000
0.000162 0.000660 0.000000
0.000163 0.000665 0.000000
0.000166 0.000671 0.000000
0.000168 0.000676 0.000000
0.000171 0.000683 0.000000
0.000172 0.000689 0.000000
0.000176 0.000695 0.000000
0.000178 0.000702 0.000000
0.000179 0.000706 0.000000
0.000181 0.000710 0.000000
0.000182 0.000720 0.000000
0.000183 0.000724 0.000000
0.000182 0.000720 0.000000
0.000185 0.000730 0.000000
0.000010 0.000445 0.000000
0.000011 0.000450 0.000000
0.000010 0.000456 0.000000
0.000011 0.000460 0.000000
0.000010 0.000465 0.000000
0.000011 0.000470 0.000000
0.000010 0.000475 0.000000
0.000012 0.000480 0.000000
0.000010 0.000486 0.000000
0.000012 0.000490 0.000000
0.000010 0.000497 0.000000
0.000012 0.000498 0.000000
0.000164 0.000602 0.000000
0.000166 0.000612 0.000000
0.000163 0.000628 0.000000
0.000162 0.000635 0.000000
0.000161 0.000639 0.000000
0.000161 0.000645 0.000000
0.000167 0.000643 0.000000
0.000167 0.000655 0.000000
0.000168 0.000659 0.000000
0.000168 0.000666 0.000000
0.000171 0.000669 0.000000
0.000171 0.000678 0.000000
0.000176 0.000678 0.000000
0.000179 0.000686 0.000000
0.000176 0.000691 0.000000
0.000179 0.000698 0.000000
0.000184 0.000713 0.000000
0.000184 0.000716 0.000000
0.000187 0.000725 0.000000
0.000191 0.000730 0.000000
0.000015 0.000445 0.000000
0.000016 0.000450 0.000000
0.000015 0.000455 0.000000
0.000017 0.000460 0.000000
0.000015 0.000466 0.000000
0.000017 0.000470 0.000000
0.000015 0.000476 0.000000
0.000017 0.000480 0.000000
0.000015 0.000485 0.000000
0.000017 0.000489 0.000000
0.000015 0.000495 0.000000
0.000017 0.000498 0.000000
0.000026 0.000500 0.000000
0.000165 0.000620 0.000000
0.000165 0.000632 0.000000
0.000167 0.000633 0.000000
0.000168 0.000649 0.000000
0.000162 0.000651 0.000000
0.000173 0.000656 0.000000
0.000169 0.000662 0.000000
0.000175 0.000667 0.000000
0.000173 0.000673 0.000000
0.000181 0.000680 0.000000
0.000175 0.000684 0.000000
0.000182 0.000691 0.000000
0.000183 0.000697 0.000000
0.000184 0.000702 0.000000
0.000185 0.000705 0.000000
0.000187 0.000709 0.000000
0.000190 0.000717 0.000000
0.000190 0.000722 0.000000
0.000194 0.000728 0.000000
0.000020 0.000445 0.000000
0.000021 0.000450 0.000000
0.000020 0.000456 0.000000
0.000022 0.000460 0.000000
0.000019 0.000465 0.000000
0.000022 0.000469 0.000000
0.000020 0.000475 0.000000
0.000022 0.000480 0.000000
0.000020 0.000486 0.000000
0.000022 0.000491 0.000000
0.000021 0.000497 0.000000
0.000023 0.000499 0.000000
0.000040 0.000500 0.000000
0.000172 0.000619 0.000000
0.000169 0.000625 0.000000
0.000172 0.000631 0.000000
0.000166 0.000641 0.000000
0.000173 0.000644 0.000000
0.000172 0.000650 0.000000
0.000175 0.000662 0.000000
0.000176 0.000660 0.000000
0.000178 0.000670 0.000000
0.000183 0.000673 0.000000
0.000186 0.000681 0.000000
0.000183 0.000687 0.000000
0.000187 0.000692 0.000000
0.000189 0.000697 0.000000
0.000193 0.000707 0.000000
0.000191 0.000712 0.000000
0.000195 0.000717 0.000000
0.000195 0.000722 0.000000
0.000198 0.000727 0.000000
0.000025 0.000445 0.000000
0.000026 0.000450 0.000000
0.000025 0.000455 0.000000
0.000026 0.000459 0.000000
0.000025 0.000466 0.000000
0.000026 0.000471 0.000000
0.000025 0.000476 0.000000
0.000027 0.000480 0.000000
0.000025 0.000485 0.000000
0.000026 0.000489 0.000000
0.000027 0.000492 0.000000
0.000028 0.000500 0.000000
0.000158 0.000586 0.000000
0.000167 0.000620 0.000000
0.000165 0.000624 0.000000
0.000171 0.000637 0.000000
0.000174 0.000640 0.000000
0.000173 0.000649 0.000000
0.000182 0.000652 0.000000
0.000178 0.000654 0.000000
0.000180 0.000665 0.000000
0.000183 0.000667 0.000000
0.000180 0.000676 0.000000
0.000186 0.000677 0.000000
0.000187 0.000687 0.000000
0.000192 0.000696 0.000000
0.000190 0.000702 0.000000
0.000196 0.000701 0.000000
0.000195 0.000713 0.000000
0.000199 0.000709 0.000000
0.000200 0.000720 0.000000
0.000202 0.000725 0.000000
0.000030 0.000445 0.000000
0.000031 0.000450 0.000000
0.000030 0.000457 0.000000
0.000033 0.000462 0.000000
0.000029 0.000465 0.000000
0.000032 0.000469 0.000000
0.000031 0.000474 0.000000
0.000030 0.000479 0.000000
0.000031 0.000486 0.000000
0.000032 0.000492 0.000000
0.000034 0.000497 0.000000
0.000031 0.000499 0.000000
0.000049 0.000500 0.000000
0.000171 0.000610 0.000000
0.000177 0.000627 0.000000
0.000175 0.000634 0.000000
0.000178 0.000639 0.000000
0.000178 0.000646 0.000000
0.000181 0.000656 0.000000
0.000184 0.000660 0.000000
0.000188 0.000662 0.000000
0.000188 0.000672 0.000000
0.000192 0.000675 0.000000
0.000191 0.000685 0.000000
0.000196 0.000687 0.000000
0.000193 0.000691 0.000000
0.000197 0.000694 0.000000
0.000196 0.000704 0.000000
0.000204 0.000711 0.000000
0.000201 0.000715 0.000000
0.000204 0.000718 0.000000
0.000207 0.000723 0.000000
0.000035 0.000445 0.000000
0.000035 0.000450 0.000000
0.000038 0.000455 0.000000
0.000034 0.000456 0.000000
0.000036 0.000465 0.000000
0.000037 0.000471 0.000000
0.000034 0.000478 0.000000
0.000039 0.000481 0.000000
0.000035 0.000484 0.000000
0.000035 0.000488 0.000000
0.000038 0.000492 0.000000
0.000037 0.000498 0.000000
0.000158 0.000559 0.000000
0.000158 0.000581 0.000000
0.000177 0.000621 0.000000
0.000180 0.000632 0.000000
0.000182 0.000643 0.000000
0.000186 0.000641 0.000000
0.000183 0.000648 0.000000
0.000188 0.000656 0.000000
0.000187 0.000666 0.000000
0.000193 0.000665 0.000000
0.000191 0.000679 0.000000
0.000196 0.000677 0.000000
0.000196 0.000683 0.000000
0.000202 0.000695 0.000000
0.000201 0.000699 0.000000
0.000205 0.000702 0.000000
0.000203 0.000706 0.000000
0.000207 0.000711 0.000000
0.000209 0.000716 0.000000
0.000211 0.000721 0.000000
0.000040 0.000445 0.000000
0.000041 0.000450 0.000000
0.000039 0.000460 0.000000
0.000042 0.000457 0.000000
0.000041 0.000465 0.000000
0.000040 0.000470 0.000000
0.000044 0.000476 0.000000
0.000039 0.000476 0.000000
0.000041 0.000487 0.000000
0.000043 0.000492 0.000000
0.000042 0.000497 0.000000
0.000045 0.000498 0.000000
0.000158 0.000517 0.000000
0.000167 0.000608 0.000000
0.000176 0.000615 0.000000
0.000188 0.000627 0.000000
0.000183 0.000637 0.000000
0.000187 0.000648 0.000000
0.000191 0.000649 0.000000
0.000189 0.000656 0.000000
0.000194 0.000661 0.000000
0.000193 0.000669 0.000000
0.000197 0.000671 0.000000
0.000201 0.000680 0.000000
0.000200 0.000686 0.000000
0.000205 0.000688 0.000000
0.000202 0.000692 0.000000
0.000207 0.000698 0.000000
0.000209 0.000705 0.000000
0.000212 0.000710 0.000000
0.000213 0.000715 0.000000
0.000216 0.000720 0.000000
0.000045 0.000445 0.000000
0.000046 0.000450 0.000000
0.000045 0.000455 0.000000
0.000046 0.000461 0.000000
0.000045 0.000465 0.000000
0.000047 0.000469 0.000000
0.000046 0.000478 0.000000
0.000043 0.000481 0.000000
0.000051 0.000484 0.000000
0.000045 0.000485 0.000000
0.000049 0.000493 0.000000
0.000051 0.000498 0.000000
0.000158 0.000523 0.000000
0.000159 0.000598 0.000000
0.000174 0.000625 0.000000
0.000184 0.000632 0.000000
0.000188 0.000636 0.000000
0.000190 0.000644 0.000000
0.000195 0.000654 0.000000
0.000198 0.000657 0.000000
0.000199 0.000665 0.000000
0.000202 0.000669 0.000000
0.000201 0.000675 0.000000
0.000204 0.000683 0.000000
0.000205 0.000678 0.000000
0.000209 0.000691 0.000000
0.000211 0.000695 0.000000
0.000212 0.000700 0.000000
0.000215 0.000704 0.000000
0.000216 0.000708 0.000000
0.000218 0.000713 0.000000
0.000220 0.000718 0.000000
0.000050 0.000445 0.000000
0.000051 0.000450 0.000000
0.000050 0.000456 0.000000
0.000052 0.000459 0.000000
0.000050 0.000465 0.000000
0.000052 0.000471 0.000000
0.000049 0.000473 0.000000
0.000052 0.000478 0.000000
0.000049 0.000488 0.000000
0.000053 0.000491 0.000000
0.000058 0.000493 0.000000
0.000054 0.000499 0.000000
0.000158 0.000550 0.000000
0.000165 0.000594 0.000000
0.000170 0.000604 0.000000
0.000183 0.000627 0.000000
0.000191 0.000635 0.000000
0.000194 0.000641 0.000000
0.000198 0.000647 0.000000
0.000195 0.000648 0.000000
0.000204 0.000659 0.000000
0.000198 0.000661 0.000000
0.000205 0.000670 0.000000
0.000208 0.000674 0.000000
0.000210 0.000682 0.000000
0.000210 0.000687 0.000000
0.000214 0.000691 0.000000
0.000216 0.000695 0.000000
0.000218 0.000701 0.000000
0.000220 0.000706 0.000000
0.000222 0.000711 0.000000
0.000225 0.000716 0.000000
0.000055 0.000445 0.000000
0.000057 0.000450 0.000000
0.000055 0.000455 0.000000
0.000056 0.000461 0.000000
0.000055 0.000465 0.000000
0.000057 0.000469 0.000000
0.000057 0.000477 0.000000
0.000058 0.000482 0.000000
0.000054 0.000483 0.000000
0.000057 0.000487 0.000000
0.000057 0.000497 0.000000
0.000060 0.000497 0.000000
0.000158 0.000555 0.000000
0.000158 0.000595 0.000000
0.000165 0.000602 0.000000
[...]
POINT_DATA 8712
SCALARS density float 1
LOOKUP_TABLE default
4428.808695
4430.600121
4426.232236
4422.540925
4422.779241
4426.633828
4437.182479
4430.654360
4439.748087
4424.163537
4434.271587
4398.033972
4664.791652
4455.659492
4538.439094
4440.733829
4432.353454
4514.395374
4464.941035
4476.487727
4493.119080
4429.554929
4414.527471
4433.267363
4426.633667
4416.557969
4435.331057
4429.217299
4428.245230
4424.354127
4447.422155
4438.015141
4422.324119
4427.613903
4424.593386
4432.808163
4440.210296
4420.428641
4425.916970
4428.409269
4413.172763
4422.944992
4446.332153
4400.929859
4399.803670
4447.777315
4383.183294
4421.607837
4401.110773
4390.367213
4410.848219
4420.156990
4431.287635
4415.264508
4429.621831
4403.878233
4444.548756
4396.983476
4407.146986
4404.425472
4434.172594
4389.860732
4433.903210
4450.563140
4422.139753
4424.068852
4444.050754
4407.077477
4439.479314
4411.430143
4448.935910
4381.664691
4475.198399
4358.450391
4474.434985
4403.119372
4450.531278
4440.166642
4391.883909
4391.478815
4372.328596
4401.502360
4477.778424
4424.192191
4458.674703
4399.162723
4409.660935
4407.159908
4393.167526
4424.474764
4418.043917
4420.166246
4415.088593
4455.337819
4420.834790
4408.268553
4431.448918
4441.134924
4434.366056
4442.217742
4438.510083
4420.822800
4466.345573
4390.445467
4484.670989
4376.073169
4530.966991
4400.403566
4437.796149
4436.955237
4493.455229
4431.197325
4356.634521
4458.630708
4371.682405
4446.372527
4421.157574
4438.955094
4416.967515
4441.480554
4393.116334
4456.140692
4439.359407
4466.755407
4464.221612
4380.828150
4487.774989
4442.773034
4430.967893
4427.491261
4436.882285
4420.727163
4440.938053
4434.044540
4423.279281
4431.034769
4452.539950
4367.056209
4464.388268
4435.947505
4422.763739
4411.457021
4464.938479
4380.343843
4514.955701
4371.976054
4465.468066
4442.658381
4446.513857
4425.643506
4428.468720
4421.338380
4456.621374
4417.611447
4442.520612
4427.820472
4401.383488
4469.140666
4351.534515
4447.060458
4431.039787
4434.126213
4428.147505
4427.928849
4442.458174
4413.645680
4454.481386
4409.855451
4418.428761
4471.299439
4422.727712
4428.637258
4520.270809
4451.694648
4430.528292
4363.556069
4458.174925
4479.679995
4412.497621
4438.167557
4429.137905
4451.954462
4437.517410
4456.156407
4445.151442
4473.253684
4350.193344
4456.552705
4467.165157
4402.543808
4425.274994
4429.521547
4438.166859
4420.402925
4416.266211
4423.852231
4429.370070
4433.616838
4423.518736
4421.173423
4416.602786
4392.660449
4462.358418
4417.779069
4427.883654
4444.645067
4448.856800
4499.221591
4463.231244
4405.765885
4437.322428
4419.840672
4433.291003
4399.089526
4450.379280
4421.113115
4438.203418
4416.071998
4394.032805
4467.710500
4459.468020
4406.328257
4414.808672
4434.218834
4437.839586
4431.073801
4416.371268
4435.755117
4436.839462
4437.265137
4441.998494
4412.937543
4428.808381
4447.324584
4418.230916
4448.815219
4618.515340
4464.235699
4443.621285
4395.884110
4467.102401
4429.341434
4447.697957
4439.299023
4435.239418
4428.884277
4425.545897
4440.773754
4425.066416
4448.686041
4397.628779
4438.379088
4413.395879
4439.707917
4414.418608
4429.336587
4425.686094
4443.776016
4434.292152
4421.718238
4435.561660
4420.536965
4436.176474
4411.960185
4449.017813
4423.182608
4429.202269
4422.218322
4550.987402
4450.546502
4450.368035
4440.648795
4404.198913
4457.750657
4447.722249
4445.745856
4443.067557
4452.175437
4446.359504
4446.577832
4408.489295
4403.936035
4449.123525
4429.366916
4409.408998
4421.834948
4416.425085
4433.889758
4432.322037
4418.820861
4419.433957
4414.929356
4442.458996
4430.909405
4434.228317
4441.844349
4463.692927
4394.901451
4467.786396
4444.532301
4489.780880
4393.734560
4443.808884
4472.211526
4470.259387
4431.203212
4411.916931
4454.232134
4421.010255
4436.642383
4415.103624
4438.471629
4442.972673
4412.102027
4423.449497
4430.739069
4430.613757
4450.177273
4428.295063
4416.529998
4432.739680
4424.024893
4435.968680
4439.914459
4402.799162
4424.655786
4452.622871
4368.042365
4410.945164
4399.699660
4564.054708
4401.715638
4633.558397
4498.358732
4451.226305
4455.534821
4447.827421
4421.229434
4446.807921
4453.128682
4447.344428
4453.134609
4449.517802
4426.124457
4432.321351
4467.220384
4448.611025
4446.316395
4418.253548
4421.823756
4420.263647
4422.745766
4433.726442
4424.495515
4413.707901
4418.540005
4437.572911
4414.739940
4443.245772
4406.696485
4483.745188
4372.629450
4399.225439
4384.875034
4403.822699
4472.679773
4441.136913
4436.631017
4429.326351
4471.739679
4458.078415
4451.014813
4452.278649
4476.385339
4467.044641
4413.251104
4452.809844
4411.188229
4421.388005
4431.727575
4446.945548
4421.509325
4425.626311
4423.873905
4428.460482
4405.587237
4439.905899
4398.709725
4432.390224
4404.040766
4464.836616
4397.411097
4470.143679
4404.419090
4451.443721
4441.217234
4409.440143
4384.510832
4463.043937
4417.861337
4403.843939
4441.065087
4452.412400
4435.989474
4430.948915
4437.628195
4404.674545
4444.067173
4441.433171
4456.634945
4428.971726
4449.067630
4415.037796
4421.969184
4421.656641
4417.339212
4438.596290
4421.035030
4429.204702
4426.313746
4442.662480
4413.007431
4460.392257
4434.857771
4449.220605
4368.760800
4450.350755
4428.354767
4640.815114
4470.964796
4402.654437
4436.964564
4469.244460
4448.088644
4421.415609
4454.551358
4423.449479
4451.383347
4439.645444
4406.943957
4446.703179
4409.528565
4428.578575
4441.302224
4439.640628
4424.932109
4424.869378
4419.061177
4427.803329
4423.867283
4420.460287
4419.254571
4422.584972
4419.210826
4442.999996
4387.331399
4444.744344
4448.921897
4439.330662
4449.746178
4464.057383
4425.351320
4393.390344
4459.434023
4469.738116
4418.926754
4459.048165
4476.810328
4454.129379
4442.402467
4423.811198
4438.435462
4403.883267
4450.735027
4429.060379
4416.463761
4438.829509
4411.607361
4421.194491
4420.958791
4441.164656
4427.106761
4424.336642
4427.840798
4425.109915
4424.654226
4416.919494
4433.010715
4442.053476
4362.010881
4428.876417
4446.636146
4423.516096
4417.713045
4412.995936
4469.546913
4418.492395
4455.999928
4464.370711
4444.948608
4435.790894
4459.029858
4445.284248
4443.951847
4444.922263
4450.191673
4449.140562
4439.172739
4433.076566
4430.377305
4413.489594
4415.803782
4422.055499
4420.329540
4432.543033
4419.658704
4434.033407
4414.357377
4421.297038
4412.699065
4396.390509
4512.868992
4365.046854
4428.185775
4423.456246
4386.693214
4484.151778
4397.471997
4461.257224
4430.338839
4425.873702
4399.967014
4435.712503
4456.989407
4459.547932
4441.697859
4444.169231
4461.782777
4436.865839
4451.188292
4409.195061
4429.633835
4421.964129
4417.788926
4446.688158
4423.505155
4430.538239
4429.024366
4426.969111
4418.377677
4450.457831
4415.543238
4448.751078
4420.032420
4449.258048
4473.890239
4567.048008
4616.425685
4567.405844
4484.639276
4452.600761
4407.291509
4452.859194
4466.086725
4444.030089
4439.543032
4441.159729
4441.771755
4425.646717
4445.311846
4449.295207
4400.788087
4437.744604
4430.055817
4416.471375
4422.680677
4419.480529
4427.444355
4436.962693
4423.814275
4432.943701
4442.243215
4410.594579
4455.474833
4440.492729
4439.733737
4400.563290
4413.186497
4407.406388
4415.503066
4384.789913
4547.278842
4446.344951
4412.291827
4463.708323
4445.347375
4441.519146
4430.323951
4439.947990
4456.260443
4446.884944
4427.772913
4464.099613
4430.767223
4440.174726
4413.969699
4414.324589
4420.295169
4446.100532
4436.796271
4430.214722
4433.113753
4420.435116
4418.850386
4410.551932
4426.362426
4423.036693
4425.963754
4434.874795
4434.883158
4397.418785
4442.637385
4419.105581
4480.200070
4470.288531
4481.849380
4428.468440
4386.677723
4475.959974
4425.260311
4439.461813
4400.389058
4461.043847
4458.477043
4436.160928
4425.263080
4414.180747
4432.228041
4419.860259
4419.732475
4414.858532
4425.005015
4419.618225
4434.877543
4425.005851
4416.353702
4425.181931
4401.526645
4439.543112
4485.368229
4381.409640
4570.864783
4479.475658
4452.902329
4465.071339
4474.687494
4496.165158
4457.562299
4447.004776
4476.310053
4435.389875
4477.349478
4431.372210
4442.676105
4407.760159
4458.811170
4423.239212
4468.005974
4437.842709
4432.219468
4421.795318
4413.824399
4448.171003
4432.274134
4418.327794
4412.887229
4415.786290
4441.857452
4443.632686
4418.132189
4453.893949
4402.653194
4416.827403
4433.921569
4478.302264
4464.264763
4481.504264
4488.652256
4498.785396
4447.457302
4462.034530
4451.629741
4407.028923
4372.768771
4430.551054
4454.024425
4463.221036
4401.297103
4466.811999
4414.423911
4426.789639
4403.043798
4428.256385
4423.595772
4425.305768
4426.344475
4432.231864
4436.124923
4419.810709
4402.354483
4422.575657
4397.235108
4435.031601
4369.191050
4339.387504
4510.525726
4417.192487
4451.505688
4455.484297
4464.876555
4458.612950
4470.214041
4431.351326
4490.496223
4449.138663
4431.272803
4423.712801
4453.435118
4462.647332
4407.707148
4457.034180
4437.487364
4462.754345
4429.395035
4417.986775
4420.971017
4443.721744
4443.211107
4433.826255
4415.111278
4438.662178
4417.834136
4436.959476
4430.150061
4471.691404
4465.154904
4451.222625
4379.780348
4456.532996
4464.947830
4431.393062
4446.642096
4450.001081
4532.898983
4449.357629
4403.673395
4460.751039
4425.408601
4392.223503
4376.610697
4449.597599
4473.649613
4424.407594
4443.243088
4413.944500
4412.283766
4430.980983
4420.628034
4408.752340
4426.556181
4425.801096
4426.530520
4427.330477
4427.467646
4428.062534
4428.210816
4428.718587
4428.809008
4429.278580
4429.287447
4429.555889
4429.470630
4429.619992
4413.663155
4424.522466
4424.278240
4425.531658
4426.316124
4426.697278
4427.523941
4427.570181
4428.302906
4428.283196
4428.964358
4428.922675
4429.204943
4429.112358
4431.365523
4417.684242
4424.656638
4423.855861
4425.317745
4426.277638
4426.404163
4427.389619
4427.313186
4428.330939
4427.994136
4429.001433
4428.445951
4429.293075
4429.197847
4429.894977
4419.857852
4425.364704
4424.596446
4425.795315
4426.216516
4426.820769
4427.426269
4427.572805
4428.169308
4428.193581
4428.741870
4428.587575
4429.462671
4428.775189
4430.915774
4422.300026
4425.811668
4425.302205
4425.994489
4426.486539
4426.876903
4427.311338
4427.648982
4428.123861
4428.223731
4428.722005
4428.496896
4429.295111
4428.493567
4430.054910
4423.325537
4426.386720
4425.949693
4426.306275
4426.987003
4426.972121
4427.841471
4427.621524
4428.382507
4428.126589
4428.842450
4428.533171
4429.010594
4428.143621
4430.006071
4424.348649
4426.811776
4426.410548
4426.667193
4427.132650
4427.185236
4427.771152
4427.716694
4428.420611
4428.272454
4428.830407
4428.474164
4429.020920
4427.706575
4429.070469
4425.177222
4427.253909
4426.850032
4427.058578
4427.477634
4427.526258
4428.014335
4428.058891
4428.473083
4428.361161
4428.999221
4428.577234
4429.287908
4427.809206
4428.433629
4425.741488
4427.586881
4427.154470
4427.367372
4427.614604
4427.629454
4428.158854
4427.944885
4428.666914
4428.513637
4429.060961
4428.910769
4429.490026
4429.105565
4429.520424
4426.484433
4427.944740
4427.446231
4427.758335
4427.800407
4428.157713
4428.091998
4428.592084
4428.508438
4428.802175
4429.034454
4429.385609
4429.944101
4429.375363
4430.987343
4426.728863
4428.229444
4427.601260
4428.065846
4427.829711
4428.230188
4428.192467
4428.519235
4428.480646
4429.049699
4429.052834
4429.364834
4430.161940
4430.265938
4431.000974
4427.248177
4428.401008
4427.908289
4428.182090
4428.231222
4428.354954
4428.528527
4428.514230
4428.942203
4428.704643
4429.231119
4429.509877
4429.869448
4430.420440
4429.950712
4427.680810
4428.361101
4428.378048
4428.158449
4428.387462
4428.363207
4428.505737
4428.621720
4428.690010
4428.938708
4429.178572
4429.117730
4429.784937
4430.125293
4431.083116
4433.639634
4430.456994
4435.376267
4446.281895
4420.170594
4452.494732
4620.078647
4483.589703
4402.629305
4470.093666
4462.402753
4485.166723
4441.412703
4428.943159
4418.783473
4409.758870
4427.932832
4428.603795
4428.407911
4428.385663
4428.620708
4428.464809
4428.775494
4428.626371
4428.914229
4428.747482
4428.939668
4429.134929
4429.402785
4429.225520
4430.855517
4438.181055
4429.442056
4403.457931
4418.131319
4448.744473
4423.413545
4394.784310
4459.282466
4457.406423
4458.719391
4442.034493
4439.195599
4453.264180
4455.048918
4395.175321
4411.175008
4427.938004
4428.673786
4428.603793
4428.439615
4428.662520
4428.463466
4428.833231
4428.388462
4428.998493
4428.393987
4429.298537
4428.308105
4429.262714
4428.561165
4428.570134
4446.385887
4438.323120
4417.742327
4387.066819
4433.354338
4376.137072
4493.211330
4446.701493
4469.956580
4458.142012
4418.025578
4383.233350
4432.993833
4438.203581
4383.392933
4424.517563
4428.212231
4428.790531
4428.744312
4428.509680
4428.896674
4428.603461
4428.860801
4428.698366
4428.918429
4428.504664
4428.968047
4428.287944
4429.212593
4427.078056
4430.558994
4438.605082
4411.794290
4429.192203
4365.248990
4488.694507
4494.928714
4440.843350
4483.937194
4461.225692
4452.860434
4452.765433
4453.677600
4410.117089
4398.218895
4388.977917
4408.209828
4428.235651
4428.947696
4428.740268
4428.793892
4428.741399
4428.699489
4428.841051
4428.570192
4428.668448
4428.703369
4428.417780
4428.211248
4428.020291
4427.110037
4427.017542
4431.399111
4416.621334
4425.162862
4422.497093
4423.714453
4450.044813
4460.129994
4489.015074
4459.675450
4463.188720
4458.825121
4466.664969
4412.770327
4362.242468
4425.911122
4411.738891
4428.311837
4429.138448
4428.753798
4428.961620
4428.747528
4429.087937
4428.609726
4429.037033
4428.715416
4428.489922
4428.481180
4427.783864
4428.033195
4426.459878
4423.277372
4412.660789
4408.484695
4420.327933
4398.834721
4457.981197
4464.397904
4462.941654
4490.295080
4432.274825
4441.531746
4450.154393
4458.846109
4436.661401
4417.866926
4437.195315
4420.514997
4428.520790
4429.206361
4428.851900
4429.138396
4428.738869
4429.040725
4428.706472
4428.995120
4428.330021
4429.157715
4427.771373
4428.819043
4426.222954
4428.137914
4425.236533
4454.885046
4390.220056
4393.340494
4450.285040
4417.660899
4455.282436
4429.332623
4464.152762
4453.171936
4480.447658
4462.656946
4461.366565
4443.581923
4447.526315
4475.261280
4412.265365
4428.542229
4429.343083
4428.885012
4429.219792
4428.837028
4429.284567
4428.758005
4429.134598
4428.776135
4428.721318
4428.415742
4428.350518
4428.573863
4428.356224
4427.223290
4425.147483
4447.364499
4412.785005
4432.072509
4420.922661
4451.099476
4448.003059
4451.782725
4441.527473
4477.368720
4452.095790
4457.617587
4448.200781
4470.890025
4418.534401
4418.156785
4428.582988
4429.233123
4429.180915
4429.071934
4429.165817
4429.028671
4429.097775
4428.964490
4428.958618
4428.778574
4428.964504
4428.718288
4428.427256
4429.081733
4430.370971
4444.377802
4426.852973
4440.862594
4455.771476
4433.384598
4456.270653
4449.772971
4453.569780
4453.595668
4426.023570
4452.291581
4449.789636
4434.706939
4476.431665
4433.453980
4417.766172
4428.704931
4429.276209
4429.328811
4429.172835
4429.331945
4429.184309
4429.309513
4429.082075
4429.119111
4429.021050
4428.731884
4428.738610
4429.503063
4429.469594
4429.016153
4422.427908
4431.375633
4447.527326
4404.682486
4447.353285
4446.458843
4458.265774
4446.509579
4454.643993
4448.094212
4441.576942
4459.054557
4464.630720
4469.179213
4407.311020
4442.009476
4428.786689
4429.435966
4429.301093
4429.433198
4429.205071
4429.482613
4429.099520
4429.340161
4429.128261
4428.902318
4429.175360
4429.116005
4428.162023
4429.340702
4429.435249
4423.022901
4424.223013
4445.016953
4439.372387
4451.374466
4437.517696
4449.443102
4451.585292
4452.014049
4456.508883
4424.312628
4459.890907
4419.644892
4494.645586
4450.074350
4422.652969
4428.835272
4429.519073
4429.381246
4429.513380
4429.436536
4429.489818
4429.427361
4429.417562
4429.075170
4429.518685
4428.681816
4428.940757
4428.611905
4428.385569
4426.334438
4417.133759
4403.151845
4394.512865
4425.595441
4409.749685
4405.971742
4443.521024
4454.720273
4448.619276
4456.759066
4428.917059
4438.429827
4431.452501
4411.566959
4393.322634
4415.906022
4429.007828
4429.526436
4429.622076
4429.588014
4429.511754
4429.661224
4429.355579
4429.538296
4429.404370
4429.121523
4429.271663
4429.111307
4428.089379
4428.422114
4426.854577
4420.608479
4438.468889
4420.349282
4426.068150
4456.203846
4417.935021
4395.077609
4424.017381
4423.229027
4405.800585
4441.909913
4476.460291
4420.546648
4414.481367
4397.763771
4453.329199
4429.087370
4429.694275
4429.609582
4429.814722
4429.634507
4429.764405
4429.715690
4429.614770
4429.495705
4429.601096
4429.130833
4429.040645
4428.840895
4428.292376
4428.557076
4434.030830
4441.864976
4416.288916
4420.927023
4435.864670
4464.467390
4452.605329
4407.642605
4445.382503
4420.962288
4423.918040
4429.049705
4432.639506
4444.493618
4489.973805
4453.873809
4429.314050
4429.747644
4429.816511
4429.824334
4429.848186
4429.937000
4429.657089
4429.967831
4429.499291
4429.707213
4429.205690
4429.516915
4428.897907
4429.567062
4430.445389
4416.306559
4425.597587
4431.980362
4423.779149
4431.821515
4432.962465
4398.527014
4442.939890
4431.565905
4406.964062
4408.237427
4466.513018
4412.787009
4417.724654
4373.112326
4448.517430
4429.455270
4429.795009
4429.985771
4430.137337
4429.884912
4430.166309
4429.956592
4429.899878
4429.965947
4429.548882
4429.981246
4429.087747
4429.617800
4429.464435
4429.211212
4437.409988
4415.540246
4441.188866
4410.574638
4423.498161
4418.490463
4409.332661
4416.870206
4414.630935
4452.142556
4434.002131
4448.809001
4453.236799
4468.614612
4465.464995
4396.770870
4429.815900
4429.856818
4430.276933
4429.917743
4430.471960
4429.926043
4430.419286
4429.926614
4430.186084
4429.977610
4429.723834
4430.036427
4429.696898
4429.209279
4431.738527
4428.407482
4431.194497
4430.965427
4420.602531
4453.336062
4434.800944
4440.211626
4420.895171
4416.242508
4446.987980
4423.551041
4430.663513
4452.155352
4414.377033
4426.494075
4451.934587
4430.080835
4429.844781
4430.617286
4430.125029
4430.606990
4430.231721
4430.520950
4430.236008
4430.363753
4429.999895
4430.212082
4429.659385
4429.598379
4429.177043
4430.334736
4429.041692
4419.288468
4436.361395
4414.926295
4392.915699
4422.221541
4424.140075
4386.103303
4439.312958
4429.223570
4454.114453
4453.124160
4441.971162
4439.344495
4398.675167
4484.154349
4430.496140
4430.261084
4430.465327
4430.681942
4430.390482
4430.719597
4430.511347
4430.466580
4430.566148
4430.198644
4430.586851
4429.700894
4430.587414
4429.412104
4428.169301
4407.974657
4439.712892
4391.384018
4442.375260
4434.518937
4443.574640
4437.053068
4408.664608
4421.911296
4468.252138
4459.592175
4448.532588
4446.644648
4452.680457
4460.620988
4458.406057
4430.732044
4430.465923
4430.634252
4430.755925
4430.774307
4430.797374
4430.743096
4430.865509
4430.638001
4430.822508
4430.224355
4430.910504
4429.536350
4429.537159
4431.754466
4431.499024
4437.610169
4433.081393
4426.032774
4447.664753
4458.251645
4430.801499
4455.307087
4457.668397
4409.962206
4454.588781
4452.282624
4458.178470
4456.512846
4454.345664
4453.354297
4431.219345
4430.424311
4431.119109
4430.776643
4431.017351
4430.954227
4431.049323
4431.051061
4430.946099
4431.028296
4431.068182
4430.364548
4431.006749
4430.740812
4429.201717
4428.056001
4447.604937
4422.898797
4423.119646
4433.840835
4411.082040
4425.793111
4454.573947
4412.385260
4423.643546
4442.601457
4453.767313
4459.850197
4461.961346
4473.433919
4447.864265
4431.717231
4430.732036
4431.166733
4431.184767
4431.161803
4431.246595
4431.319894
4431.175570
4431.490966
4431.053218
4431.188144
4431.387641
4430.818711
4430.558399
4430.307760
4440.631445
4425.096785
4429.936593
4438.034976
4443.133328
4437.124060
4459.875767
4401.571743
4405.688912
4441.568887
4438.437200
4449.009681
4451.181131
4458.271615
4460.764295
4451.598990
4432.058818
4431.045290
4431.287661
4431.416681
4431.268397
4431.557441
4431.369354
4431.739844
4431.289918
4432.028739
4431.464693
4431.802700
4431.269079
4431.799214
4432.033241
4440.316858
4424.054250
4437.285684
4429.794204
4432.577891
4447.418546
4445.676395
4445.176106
4472.797608
4418.329081
4434.369487
4443.230080
4439.982792
4436.481172
4470.928449
4453.674381