# vtk DataFile Version 2.0
mfree iwf
ASCII

DATASET UNSTRUCTURED_GRID
POINTS 9768 float
0.000000 0.000445 0.000000
0.000000 0.000450 0.000000
0.000000 0.000455 0.000000
0.000000 0.000460 0.000000
0.000000 0.000465 0.000000
0.000000 0.000470 0.000000
0.000000 0.000475 0.000000
0.000000 0.000480 0.000000
0.000000 0.000485 0.000000
0.000000 0.000490 0.000000
-0.000000 0.000496 0.000000
0.000002 0.000500 0.000000
0.000422 0.000773 0.000000
0.000428 0.000779 0.000000
0.000465 0.000807 0.000000
0.000471 0.000810 0.000000
0.000471 0.000810 0.000000
0.000476 0.000813 0.000000
0.000482 0.000817 0.000000
0.000480 0.000816 0.000000
0.000491 0.000823 0.000000
0.000515 0.000836 0.000000
0.000521 0.000837 0.000000
0.000526 0.000838 0.000000
0.000530 0.000839 0.000000
0.000536 0.000840 0.000000
0.000540 0.000840 0.000000
0.000546 0.000841 0.000000
0.000549 0.000841 0.000000
0.000556 0.000842 0.000000
0.000562 0.000843 0.000000
0.000587 0.000849 0.000000
0.000005 0.000445 0.000000
0.000005 0.000450 0.000000
0.000005 0.000455 0.000000
0.000005 0.000460 0.000000
0.000005 0.000465 0.000000
0.000005 0.000470 0.000000
0.000005 0.000475 0.000000
0.000005 0.000480 0.000000
0.000005 0.000485 0.000000
0.000006 0.000490 0.000000
0.000004 0.000496 0.000000
0.000006 0.000499 0.000000
0.000461 0.000804 0.000000
0.000474 0.000804 0.000000
0.000499 0.000825 0.000000
0.000504 0.000828 0.000000
0.000508 0.000830 0.000000
0.000512 0.000831 0.000000
0.000515 0.000832 0.000000
0.000520 0.000832 0.000000
0.000525 0.000833 0.000000
0.000532 0.000834 0.000000
0.000538 0.000835 0.000000
0.000544 0.000837 0.000000
0.000551 0.000836 0.000000
0.000559 0.000839 0.000000
0.000563 0.000839 0.000000
0.000569 0.000839 0.000000
0.000577 0.000845 0.000000
0.000581 0.000846 0.000000
0.000575 0.000845 0.000000
0.000586 0.000847 0.000000
0.000010 0.000445 0.000000
0.000011 0.000450 0.000000
0.000010 0.000455 0.000000
0.000011 0.000460 0.000000
0.000010 0.000465 0.000000
0.000011 0.000470 0.000000
0.000010 0.000475 0.000000
0.000011 0.000479 0.000000
0.000009 0.000487 0.000000
0.000012 0.000489 0.000000
0.000009 0.000497 0.000000
0.000011 0.000498 0.000000
0.000466 0.000801 0.000000
0.000477 0.000804 0.000000
0.000488 0.000815 0.000000
0.000493 0.000819 0.000000
0.000497 0.000822 0.000000
0.000502 0.000825 0.000000
0.000502 0.000818 0.000000
0.000511 0.000822 0.000000
0.000514 0.000826 0.000000
0.000521 0.000828 0.000000
0.000526 0.000829 0.000000
0.000532 0.000831 0.000000
0.000537 0.000829 0.000000
0.000543 0.000828 0.000000
0.000547 0.000834 0.000000
0.000556 0.000836 0.000000
0.000571 0.000840 0.000000
0.000574 0.000841 0.000000
0.000583 0.000843 0.000000
0.000588 0.000840 0.000000
0.000015 0.000445 0.000000
0.000016 0.000450 0.000000
0.000015 0.000455 0.000000
0.000016 0.000459 0.000000
0.000014 0.000466 0.000000
0.000016 0.000470 0.000000
0.000014 0.000476 0.000000
0.000017 0.000480 0.000000
0.000014 0.000484 0.000000
0.000017 0.000489 0.000000
0.000014 0.000495 0.000000
0.000017 0.000498 0.000000
0.000025 0.000500 0.000000
0.000479 0.000807 0.000000
0.000490 0.000815 0.000000
0.000494 0.000812 0.000000
0.000504 0.000819 0.000000
0.000506 0.000827 0.000000
0.000516 0.000822 0.000000
0.000520 0.000824 0.000000
0.000526 0.000820 0.000000
0.000531 0.000828 0.000000
0.000543 0.000823 0.000000
0.000541 0.000833 0.000000
0.000552 0.000829 0.000000
0.000554 0.000832 0.000000
0.000560 0.000831 0.000000
0.000563 0.000834 0.000000
0.000569 0.000834 0.000000
0.000575 0.000835 0.000000
0.000580 0.000837 0.000000
0.000589 0.000837 0.000000
0.000020 0.000445 0.000000
0.000020 0.000450 0.000000
0.000020 0.000455 0.000000
0.000021 0.000460 0.000000
0.000019 0.000465 0.000000
0.000022 0.000469 0.000000
0.000019 0.000474 0.000000
0.000022 0.000479 0.000000
0.000019 0.000486 0.000000
0.000021 0.000491 0.000000
0.000021 0.000497 0.000000
0.000022 0.000499 0.000000
0.000039 0.000500 0.000000
0.000484 0.000801 0.000000
0.000487 0.000807 0.000000
0.000493 0.000808 0.000000
0.000496 0.000816 0.000000
0.000507 0.000814 0.000000
0.000515 0.000816 0.000000
0.000525 0.000824 0.000000
0.000520 0.000819 0.000000
0.000532 0.000822 0.000000
0.000538 0.000816 0.000000
0.000545 0.000819 0.000000
0.000549 0.000824 0.000000
0.000557 0.000826 0.000000
0.000562 0.000826 0.000000
0.000571 0.000828 0.000000
0.000573 0.000831 0.000000
0.000582 0.000832 0.000000
0.000584 0.000836 0.000000
0.000590 0.000833 0.000000
0.000025 0.000445 0.000000
0.000025 0.000450 0.000000
0.000026 0.000454 0.000000
0.000025 0.000460 0.000000
0.000024 0.000465 0.000000
0.000026 0.000472 0.000000
0.000023 0.000476 0.000000
0.000027 0.000481 0.000000
0.000024 0.000485 0.000000
0.000026 0.000488 0.000000
0.000027 0.000492 0.000000
0.000027 0.000500 0.000000
0.000444 0.000792 0.000000
0.000483 0.000808 0.000000
0.000485 0.000810 0.000000
0.000501 0.000813 0.000000
0.000504 0.000809 0.000000
0.000510 0.000818 0.000000
0.000519 0.000813 0.000000
0.000512 0.000812 0.000000
0.000524 0.000815 0.000000
0.000530 0.000818 0.000000
0.000537 0.000823 0.000000
0.000538 0.000822 0.000000
0.000547 0.000827 0.000000
0.000553 0.000822 0.000000
0.000566 0.000829 0.000000
0.000564 0.000822 0.000000
0.000578 0.000830 0.000000
0.000573 0.000824 0.000000
0.000585 0.000829 0.000000
0.000590 0.000828 0.000000
0.000030 0.000445 0.000000
0.000030 0.000450 0.000000
0.000029 0.000457 0.000000
0.000032 0.000460 0.000000
0.000030 0.000464 0.000000
0.000029 0.000468 0.000000
0.000031 0.000472 0.000000
0.000031 0.000477 0.000000
0.000031 0.000486 0.000000
0.000031 0.000492 0.000000
0.000033 0.000497 0.000000
0.000031 0.000499 0.000000
0.000049 0.000500 0.000000
0.000476 0.000797 0.000000
0.000495 0.000803 0.000000
0.000499 0.000808 0.000000
0.000501 0.000805 0.000000
0.000509 0.000809 0.000000
0.000522 0.000809 0.000000
0.000531 0.000815 0.000000
0.000525 0.000812 0.000000
0.000535 0.000813 0.000000
0.000543 0.000816 0.000000
0.000556 0.000818 0.000000
0.000551 0.000817 0.000000
0.000558 0.000822 0.000000
0.000562 0.000817 0.000000
0.000568 0.000823 0.000000
0.000579 0.000821 0.000000
0.000580 0.000825 0.000000
0.000585 0.000824 0.000000
0.000591 0.000824 0.000000
0.000035 0.000445 0.000000
0.000035 0.000450 0.000000
0.000037 0.000454 0.000000
0.000035 0.000457 0.000000
0.000035 0.000466 0.000000
0.000037 0.000472 0.000000
0.000032 0.000479 0.000000
0.000042 0.000479 0.000000
0.000035 0.000483 0.000000
0.000034 0.000488 0.000000
0.000038 0.000491 0.000000
0.000036 0.000498 0.000000
0.000415 0.000762 0.000000
0.000441 0.000790 0.000000
0.000488 0.000798 0.000000
0.000498 0.000800 0.000000
0.000511 0.000804 0.000000
0.000510 0.000799 0.000000
0.000515 0.000808 0.000000
0.000522 0.000804 0.000000
0.000531 0.000810 0.000000
0.000532 0.000805 0.000000
0.000541 0.000805 0.000000
0.000549 0.000814 0.000000
0.000551 0.000811 0.000000
0.000565 0.000812 0.000000
0.000570 0.000818 0.000000
0.000572 0.000811 0.000000
0.000576 0.000820 0.000000
0.000583 0.000818 0.000000
0.000587 0.000820 0.000000
0.000592 0.000819 0.000000
0.000040 0.000445 0.000000
0.000041 0.000450 0.000000
0.000037 0.000461 0.000000
0.000042 0.000457 0.000000
0.000042 0.000463 0.000000
0.000039 0.000468 0.000000
0.000042 0.000473 0.000000
0.000037 0.000477 0.000000
0.000041 0.000488 0.000000
0.000042 0.000492 0.000000
0.000041 0.000497 0.000000
0.000045 0.000498 0.000000
0.000371 0.000610 0.000000
0.000470 0.000801 0.000000
0.000482 0.000796 0.000000
0.000498 0.000792 0.000000
0.000506 0.000804 0.000000
0.000517 0.000805 0.000000
0.000515 0.000801 0.000000
0.000527 0.000806 0.000000
0.000538 0.000809 0.000000
0.000541 0.000812 0.000000
0.000537 0.000803 0.000000
0.000551 0.000806 0.000000
0.000556 0.000811 0.000000
0.000562 0.000809 0.000000
0.000559 0.000814 0.000000
0.000568 0.000816 0.000000
0.000575 0.000815 0.000000
0.000581 0.000812 0.000000
0.000587 0.000815 0.000000
0.000593 0.000814 0.000000
0.000045 0.000445 0.000000
0.000046 0.000450 0.000000
0.000045 0.000454 0.000000
0.000045 0.000461 0.000000
0.000045 0.000467 0.000000
0.000046 0.000473 0.000000
0.000046 0.000479 0.000000
0.000040 0.000484 0.000000
0.000052 0.000486 0.000000
0.000046 0.000483 0.000000
0.000048 0.000493 0.000000
0.000050 0.000498 0.000000
0.000371 0.000620 0.000000
0.000460 0.000802 0.000000
0.000490 0.000803 0.000000
0.000504 0.000798 0.000000
0.000505 0.000796 0.000000
0.000520 0.000799 0.000000
0.000524 0.000799 0.000000
0.000529 0.000801 0.000000
0.000536 0.000799 0.000000
0.000546 0.000804 0.000000
0.000546 0.000809 0.000000
0.000557 0.000807 0.000000
0.000549 0.000801 0.000000
0.000565 0.000804 0.000000
0.000570 0.000808 0.000000
0.000577 0.000810 0.000000
0.000579 0.000806 0.000000
0.000584 0.000811 0.000000
0.000588 0.000810 0.000000
0.000593 0.000809 0.000000
0.000049 0.000445 0.000000
0.000051 0.000450 0.000000
0.000048 0.000457 0.000000
0.000053 0.000459 0.000000
0.000049 0.000463 0.000000
0.000050 0.000472 0.000000
0.000051 0.000468 0.000000
0.000051 0.000477 0.000000
0.000047 0.000488 0.000000
0.000052 0.000491 0.000000
0.000058 0.000492 0.000000
0.000053 0.000498 0.000000
0.000387 0.000709 0.000000
0.000458 0.000794 0.000000
0.000471 0.000797 0.000000
0.000496 0.000796 0.000000
0.000509 0.000793 0.000000
0.000513 0.000795 0.000000
0.000517 0.000795 0.000000
0.000522 0.000793 0.000000
0.000535 0.000794 0.000000
0.000532 0.000798 0.000000
0.000541 0.000795 0.000000
0.000553 0.000798 0.000000
0.000555 0.000803 0.000000
0.000560 0.000802 0.000000
0.000567 0.000804 0.000000
0.000574 0.000799 0.000000
0.000573 0.000804 0.000000
0.000583 0.000804 0.000000
0.000589 0.000805 0.000000
0.000594 0.000804 0.000000
0.000054 0.000445 0.000000
0.000057 0.000450 0.000000
0.000054 0.000454 0.000000
0.000054 0.000462 0.000000
0.000057 0.000466 0.000000
0.000055 0.000472 0.000000
0.000057 0.000477 0.000000
0.000057 0.000480 0.000000
0.000052 0.000483 0.000000
0.000057 0.000486 0.000000
0.000056 0.000497 0.000000
0.000060 0.000496 0.000000
0.000398 0.000731 0.000000
0.000457 0.000801 0.000000
0.000464 0.000796 0.000000
[...]
POINT_DATA 9768
SCALARS density float 1
LOOKUP_TABLE default
4429.208612
4429.137103
4426.645061
4422.548311
4430.778025
4430.983495
4427.626008
4433.596312
4437.943989
4415.575141
4432.684022
4404.536527
4420.351198
4438.567338
4432.278918
4430.251605
4441.681150
4432.059509
4441.924028
4442.393958
4431.129951
4419.486843
4411.357679
4441.893802
4439.332842
4432.295579
4444.536965
4446.305364
4416.298944
4452.810318
4434.612568
4439.854429
4430.256854
4429.307444
4430.687395
4435.716918
4431.499877
4419.892691
4429.615705
4425.799906
4411.366920
4427.397165
4447.521998
4408.818036
4425.327245
4438.842897
4415.617124
4405.010306
4422.364699
4410.942050
4417.047054
4465.611526
4412.974089
4392.032266
4423.120355
4397.453054
4425.667387
4400.285298
4410.265780
4450.430802
4402.773952
4415.313130
4406.557676
4412.404090
4423.972187
4437.091630
4430.263633
4418.432764
4428.786291
4414.101962
4457.054994
4399.195931
4465.341280
4395.796030
4450.281436
4397.132564
4427.715947
4457.108212
4410.441458
4385.859092
4390.275275
4415.691072
4475.160908
4409.822248
4448.638056
4409.209906
4405.408124
4470.543693
4405.116931
4410.300611
4446.071391
4419.159436
4454.592604
4443.902361
4464.024204
4423.369541
4433.192898
4440.985198
4443.418561
4422.582762
4445.791923
4416.570098
4450.642676
4383.514480
4471.007987
4368.941519
4510.887938
4406.564267
4436.967909
4383.020545
4433.623641
4425.075427
4456.811893
4444.521689
4433.575379
4426.079494
4436.242761
4433.658783
4408.846869
4453.156151
4407.818192
4463.053784
4426.557127
4476.202002
4412.308840
4353.734473
4495.591820
4461.487786
4434.622439
4427.731978
4433.867737
4433.761409
4444.216961
4418.682363
4438.862337
4430.755028
4471.949906
4370.040291
4478.955953
4437.690110
4420.971188
4417.630999
4449.968281
4404.249360
4536.802577
4426.854003
4473.312502
4449.038814
4413.118998
4408.579528
4391.726586
4436.134608
4430.314996
4415.045623
4412.583487
4477.157196
4457.785074
4448.193698
4332.116936
4428.180215
4428.947713
4438.840230
4445.250276
4419.561708
4428.153732
4416.103933
4464.306209
4355.553792
4441.765243
4468.307023
4404.094799
4428.103238
4426.185705
4436.167482
4427.768132
4334.120389
4477.224749
4381.345831
4425.670891
4423.220827
4420.278611
4436.565656
4452.990745
4437.936044
4444.174837
4457.521195
4395.561047
4450.244351
4447.438574
4366.708902
4440.221303
4418.250468
4430.133077
4408.608399
4408.027350
4434.087073
4439.372127
4448.473296
4407.800298
4467.999610
4433.452254
4419.725086
4454.137975
4422.856655
4416.089034
4419.583736
4439.730197
4458.546198
4410.782475
4429.385003
4445.705434
4447.144013
4448.005285
4449.077009
4431.986982
4405.146180
4403.000481
4428.621641
4404.674139
4420.950869
4478.838686
4381.419047
4433.815362
4444.699287
4434.713486
4431.354417
4432.839518
4457.610197
4427.397737
4436.572674
4455.172200
4421.880793
4411.753275
4432.746731
4408.783719
4445.158537
4421.133342
4419.279417
4434.908043
4421.254079
4435.106252
4448.828240
4423.981307
4426.379193
4413.068972
4441.698321
4417.112194
4459.887363
4418.886038
4402.498233
4427.482916
4437.389610
4490.090754
4389.657348
4421.471599
4413.370265
4426.703783
4414.844055
4419.622114
4400.436789
4452.111569
4434.521958
4447.445226
4409.052793
4448.319735
4430.956964
4439.082736
4420.880330
4560.508989
4387.006895
4386.393420
4449.183353
4400.989281
4446.841079
4433.629618
4435.188398
4427.823877
4423.347249
4439.560140
4408.723814
4436.449246
4400.430950
4457.011777
4438.520920
4402.209202
4419.219398
4451.265576
4421.295570
4430.588076
4418.242867
4450.738343
4444.638603
4395.914967
4427.835140
4435.389919
4430.101374
4434.716928
4423.022776
4475.806527
4438.420887
4441.553556
4424.043457
4425.384630
4445.245693
4446.480456
4439.411171
4424.500287
4447.377067
4423.187793
4454.518810
4418.541659
4443.861616
4430.630302
4444.342581
4439.513554
4455.052768
4433.600058
4446.967005
4422.873896
4423.361701
4428.347855
4409.825878
4391.246554
4447.889467
4427.007161
4456.144840
4435.318161
4372.020688
4379.098656
4413.368308
4515.063942
4413.386486
4429.746479
4460.249722
4431.053000
4447.622524
4450.778937
4408.126484
4447.496490
4408.708994
4447.750988
4421.123541
4449.527740
4409.770023
4436.840843
4431.693574
4445.989796
4459.681659
4396.189018
4406.267496
4429.098910
4437.457374
4429.919422
4417.800835
4453.186825
4437.055520
4417.450861
4422.621602
4431.516378
4440.221829
4472.194007
4357.887347
4424.320963
4401.992798
4435.088534
4410.058229
4487.516914
4415.171815
4453.170444
4432.397377
4412.049777
4459.213758
4405.693859
4438.105472
4412.903222
4416.778129
4410.519803
4407.210621
4441.532797
4436.712578
4442.681253
4448.031081
4429.828795
4420.606255
4426.311260
4438.179887
4425.592013
4431.969970
4418.014591
4423.113718
4435.705542
4401.220102
4481.341605
4415.263509
4442.747354
4433.460505
4414.675508
4431.002704
4450.889838
4384.556407
4364.645750
4462.466460
4416.088570
4444.934753
4425.924968
4411.477060
4450.729604
4430.995548
4423.155138
4424.862863
4446.776922
4452.415946
4407.371532
4419.394881
4417.894073
4435.832577
4439.140658
4431.290566
4414.892751
4448.881671
4453.813490
4433.516409
4429.177646
4435.528048
4460.578858
4361.672417
4470.698129
4423.749391
4424.648208
4412.908275
4445.720488
4415.439425
4464.649739
4392.546285
4412.887604
4421.950073
4394.778290
4434.079376
4460.902788
4458.973297
4407.046806
4417.235862
4418.347297
4432.901005
4434.011979
4453.247973
4428.178496
4422.095375
4427.497624
4435.513162
4409.689446
4415.039359
4411.384467
4457.958053
4399.064487
4434.435702
4376.171412
4435.372270
4431.094951
4455.935793
4439.646596
4418.070617
4432.692964
4505.623710
4456.763735
4433.025712
4465.857450
4469.489620
4372.487627
4440.734606
4420.672173
4422.804847
4413.935790
4457.982720
4443.867061
4438.051071
4419.508811
4398.631443
4434.615019
4432.588735
4443.334207
4405.404745
4437.516607
4437.637120
4441.562903
4437.905996
4451.106655
4467.334501
4480.458575
4336.946239
4416.108266
4453.654910
4426.705388
4418.378136
4425.002442
4359.385248
4438.049669
4467.129593
4414.167974
4465.054337
4445.660789
4423.715299
4453.244011
4454.216186
4437.634842
4443.750017
4381.975448
4443.843484
4432.803204
4452.352832
4423.443995
4421.310591
4414.896664
4434.392181
4438.461693
4421.590497
4409.229679
4395.055619
4447.849140
4407.407775
4446.504564
4507.370976
4422.169896
4422.450902
4418.565722
4431.278742
4450.995354
4434.128212
4461.300884
4404.973740
4429.145437
4416.886381
4413.894997
4462.627629
4446.858513
4425.447791
4431.288764
4413.622423
4445.240800
4452.708096
4394.239205
4443.735805
4415.758261
4439.394267
4434.642614
4421.662990
4411.010617
4448.019742
4466.280996
4418.460957
4430.569501
4446.402302
4387.479539
4358.541246
4441.000237
4456.898584
4493.047731
4437.193782
4447.103925
4435.672516
4365.789967
4387.668255
4469.623709
4464.518635
4455.218622
4485.228875
4404.721076
4428.533739
4421.239735
4445.468248
4405.548472
4395.649132
4451.568901
4443.093781
4422.698828
4432.899587
4420.690281
4425.553658
4449.974656
4422.433010
4400.113610
4449.854131
4442.674662
4486.987279
4437.486837
4439.109770
4400.941016
4428.125229
4417.453810
4415.683758
4432.715171
4425.011179
4436.473756
4395.213292
4453.467498
4399.503323
4400.294206
4446.585981
4406.477690
4423.557475
4444.663881
4435.693249
4446.540866
4439.124809
4442.821361
4409.216728
4423.156499
4424.608210
4443.287973
4434.311965
4411.426217
4417.326611
4428.602966
4406.656934
4423.528871
4381.043087
4482.520345
4431.579879
4428.137099
4434.022444
4412.342811
4431.685997
4446.934514
4432.350803
4407.840400
4442.008634
4444.325383
4388.430865
4514.741280
4410.649844
4429.423747
4432.660626
4445.732908
4425.301678
4438.246728
4413.052055
4415.539037
4445.830844
4438.160404
4428.667570
4419.857914
4422.710129
4441.363054
4432.596205
4445.681195
4445.951708
4394.616987
4414.651452
4438.486104
4479.534586
4385.570471
4541.052157
4430.430621
4438.509221
4427.766253
4459.298280
4442.815673
4444.578610
4471.502155
4455.995059
4415.988754
4459.431850
4484.998564
4399.969430
4452.664637
4420.681976
4437.991324
4443.719996
4458.949799
4420.056576
4420.377458
4425.362455
4442.071039
4435.802450
4409.461946
4421.237293
4440.426499
4419.511743
4368.128266
4432.880362
4480.151511
4378.097733
4427.735487
4432.329584
4423.607392
4429.180091
4420.802475
4419.910998
4449.875350
4440.303330
4459.681840
4452.196206
4410.691675
4337.624003
4445.132776
4446.902859
4467.467205
4425.438976
4417.029805
4416.326481
4433.202614
4406.353234
4441.017970
4436.842213
4432.060600
4430.173035
4438.094098
4430.867801
4397.198770
4450.476876
4460.753755
4419.284444
4448.427045
4402.674891
4389.349435
4472.327993
4429.003484
4462.953626
4410.980902
4453.031922
4448.573339
4433.957378
4436.248446
4399.575950
4415.940230
4368.479450
4346.855503
4450.312596
4426.012367
4405.470883
4452.196773
4432.439207
4468.048182
4430.650112
4418.607990
4425.459726
4430.642412
4431.479940
4403.472880
4436.222888
4424.212434
4404.151799
4449.561887
4431.814046
4452.893778
4446.201443
4400.351800
4425.559601
4420.274953
4429.131816
4403.936414
4357.862535
4454.929411
4452.684145
4432.274085
4449.554380
4439.195748
4431.558725
4431.272634
4439.044748
4456.186640
4457.830184
4438.769243
4439.210999
4411.865490
4414.870507
4440.824037
4423.142750
4420.848480
4429.060497
4428.738804
4429.108176
4429.482187
4429.588526
4429.927493
4430.039322
4430.468820
4430.679393
4431.154862
4431.184785
4431.230373
4430.845556
4429.964448
4423.565293
4428.200525
4428.295852
4428.993285
4429.538457
4429.801900
4430.208048
4430.183806
4430.300182
4429.864957
4429.855638
4429.805923
4430.187507
4430.711407
4430.676125
4425.560410
4427.954022
4427.982684
4428.181237
4428.918169
4428.609961
4429.343677
4429.223561
4430.013455
4430.413715
4431.130514
4430.962022
4430.672043
4430.286948
4429.229958
4426.433075
4428.054841
4428.419185
4428.555623
4429.307355
4429.335464
4429.860410
4429.606930
4429.844310
4428.910751
4428.950487
4428.348844
4428.934788
4428.627552
4429.564835
4427.387181
4428.116460
4428.381532
4428.071599
4428.694717
4428.182828
4429.032394
4428.563596
4429.663185
4429.573001
4430.897501
4429.791361
4430.598707
4427.523913
4428.262054
4427.575038
4428.216326
4428.823102
4428.186591
4429.509882
4428.747003
4429.856749
4428.947419
4429.645186
4428.257513
4428.494292
4427.728176
4428.400879
4427.348863
4430.051212
4427.657126
4428.325038
4428.496542
4428.135478
4428.468830
4428.097406
4428.596307
4428.396826
4429.099062
4429.409464
4430.254344
4429.872249
4429.510948
4428.092593
4428.734551
4427.769004
4428.665509
4428.446576
4428.600766
4428.935954
4429.005812
4429.211015
4429.061399
4429.011599
4428.261970
4428.114062
4427.400829
4428.689011
4427.948601
4427.247220
4427.584469
4428.536730
4428.338485
4428.163112
4428.263289
4427.993913
4428.303438
4428.171199
4428.846896
4429.186223
4430.120831
4430.213513
4429.839779
4428.673626
4430.783590
4427.876920
4428.652823
4428.446007
4428.585239
4428.737431
4428.903312
4428.925961
4428.908128
4428.615216
4428.250126
4427.808497
4427.670187
4429.235401
4428.876837
4429.895228
4427.516772
4428.564100
4428.222369
4428.059856
4428.109819
4427.829580
4427.978678
4427.906669
4428.547952
4428.900262
4430.016698
4430.040276
4430.158214
4429.872483
4429.852854
4427.613162
4428.651533
4428.325676
4428.396527
4428.672099
4428.526211
4428.783342
4428.484958
4428.496696
4427.792039
4427.506319
4427.504120
4428.340163
4429.692066
4430.443975
4427.610151
4428.523060
4428.105802
4428.137479
4427.702554
4427.887347
4427.493183
4427.910184
4427.844577
4428.913429
4429.052347
4429.681340
4429.353930
4429.023081
4430.360085
4417.638261
4405.448302
4420.672766
4440.298230
4416.050798
4449.210610
4432.178169
4438.391844
4399.309268
4463.668608
4407.391997
4405.573066
4411.957098
4439.312779
4431.221240
4418.623653
4427.584347
4428.593899
4428.222300
4428.191530
4428.493828
4428.344355
4428.428762
4428.296946
4428.037539
4427.111263
4427.056568
4426.450461
4427.103760
4427.556342
4429.081644
4431.030295
4421.077490
4426.411694
4437.369500
4413.772323
4441.432604
4436.179720
4343.031901
4425.854541
4383.050743
4404.578235
4460.746527
4408.446803
4465.237876
4394.304035
4403.022974
4427.182276
4428.275651
4428.148546
4427.690643
4427.886436
4427.082037
4427.794584
4426.764814
4427.899567
4427.786501
4428.759957
4428.254786
4428.490526
4426.807879
4428.467140
4433.026022
4452.221326
4419.667633
4437.353217
4404.786963
4443.803638
4419.150304
4392.765938
4435.583404
4456.262542
4434.507243
4427.679294
4405.441880
4422.984741
4407.295204
4447.695396
4427.394207
4428.231397
4428.395001
4427.633214
4428.509639
4427.811737
4428.227494
4427.777887
4427.742221
4426.265864
4426.718165
4425.103739
4426.431901
4424.215561
4427.037079
4421.733654
4410.698725
4397.616911
4382.909350
4409.917382
4444.063155
4436.098844
4448.864618
4420.324569
4407.881706
4434.248435
4432.979515
4389.559709
4388.594560
4426.957079
4441.680220
4426.944639
4428.266876
4427.911320
4427.492603
4427.648852
4426.825279
4427.441832
4426.577652
4427.289162
4427.658225
4427.791451
4427.390863
4427.155982
4424.314117
4423.762426
4432.568985
4429.169985
4432.639099
4466.302058
4454.907879
4433.389339
4436.712630
4433.485896
4410.847343
4453.509281
4447.184011
4454.273949
4399.933325
4417.494922
4433.633279
4414.589441
4426.999993
4428.413710
4427.740086
4428.037309
4427.686438
4427.995511
4427.754814
4427.671962
4427.453262
4425.774357
4426.090178
4424.904081
4424.798432
4424.737595
4423.042854
4425.417529
4406.396103
4446.678940
4437.568374
4485.268350
4385.826778
4435.661520
4428.376700
4445.324585
4400.834722
4386.555473
4453.589713
4413.907850
4440.606022
4445.353460
4422.628643
4427.056531
4428.102168
4427.974146
4427.184572
4427.576492
4426.964198
4426.996738
4426.952682
4426.526029
4427.949197
4426.917074
4427.468690
4426.198837
4425.125402
4425.447783
4446.373510
4440.033493
4449.363975
4390.738502
4345.161210
4436.175913
4424.960332
4423.979398
4447.816545
4431.662088
4415.028832
4466.777846
4459.203828
4409.776757
4477.328959
4390.827939
4426.870716
4428.265021
4427.714919
4427.862811
4427.838932
4427.602068
4427.988379
4427.251945
4427.449585
4425.522630
4426.058498
4424.825799
4425.396501
4425.390735
4425.431438
4436.020092
4416.510803
4448.951104
4399.565789
4405.870342
4473.629371
4421.840953
4419.900246
4430.771767
4402.994841
4461.103065
4376.424346
4440.196945
4454.839704
4437.670214
4443.334676
4426.855975
4428.080321
4427.794242
4427.286436
4427.475345
4426.958971
4427.200785
4426.350693
4427.077850
4427.010276
4427.714569
4427.074836
4427.355827
4426.046398
4426.403880
4423.066498
4442.304023
4410.781275
4431.711592
4446.085433
4429.942673
4424.107356
4419.090085
4393.653315
4462.774123
4403.861572
4370.543022
4438.283815
4470.767172
4424.201586
4396.427221
4426.841990
4428.037411
4427.994034
4427.345091
4428.211751
4427.250764
4427.718082
4427.420093
4426.692458
4425.774159
4425.826269
4424.653924
4426.194760
4424.957109
4428.172150
4431.809628
4439.110319
4430.119124
4443.726321
4371.591571
4414.263382
4430.678207
4426.038009
4407.682377
4437.642991
4392.497044
4429.010803
4339.913013
4450.606744
4480.799111
4429.743731
4426.880185
4428.146896
4427.565521
4427.662107
4427.090756
4426.875553
4427.066030
4425.757778
4426.778854
4426.860610
4427.096752
4427.487251
4426.051850
4424.943838
4424.401800
4434.650306
4437.762463
4437.275315
4431.011343
4443.983393
4425.062870
4449.104084
4489.638911
4386.777871
4412.515460
4449.228348
4448.160362
4443.471252
4452.512675
4410.129257
4384.044879
4427.048701
4428.017349
4427.932331
4427.251581
4427.808179
4427.112865
4427.197029
4427.179582
4426.801147
4425.343678
4426.370314
4424.030656
4425.656906
4424.802047
4423.096617
4448.554963
4417.843933
4460.498209
4438.305542
4402.012192
4420.603193
4431.775676
4395.575610
4476.560202
4410.887411
4431.997499
4382.149844
4417.116556
4391.500210
4396.936577
4456.954338
4426.990233
4427.889801
4428.008474
4426.826503
4427.647938
4426.104064
4427.351250
4425.937513
4426.704949
4427.466836
4426.746293
4427.395554
4425.626263
4424.950788
4426.795775
4426.459351
4419.288019
4447.987850
4404.331424
4390.498747
4455.050459
4422.529642
4431.967924
4396.595765
4420.862089
4429.035392
4435.994166
4438.248810
4404.639622
4485.627045
4468.363181
4427.194703
4428.299854
4427.430591
4428.024415
4427.114478
4427.829974
4427.415778
4427.260534
4427.463999
4424.882624
4426.027678
4423.923903
4425.844344
4424.012188
4426.354678
4438.167482
4432.556331
4427.629755
4445.202511
4437.703908
4418.487350
4456.165112
4447.818530
4393.762228
4439.191314
4442.869848
4446.081531
4417.963416
4413.142919
4428.051254
4452.103285
4426.926846
4428.020345
4428.000525
4426.969866
4427.815216
4426.838809
4427.046502
4426.573484
4426.044451
4426.844806
4426.739976
4426.365619
4425.875622
4425.571433
4424.251869
4425.342306
4435.837760
4429.566991
4429.395524
4445.616685
4444.765338
4488.635852
4469.576344
4442.306634
4436.259978
4385.086273
4397.430461
4429.683757
4432.298499
4412.441555
4413.967433
4427.307927
4428.006862
4428.093651
4427.478836
4428.228794
4427.083531
4428.149052
4426.604117
4427.550763
4425.469018
4425.496735
4425.205583
4424.851266
4425.194019
4425.810915
4421.893076
4420.358868
4443.454769
4408.079327
4368.195719
4433.241927
4650.469289
4469.187672
4437.773688
4445.864186
4452.040282
4434.490584
4449.150340
4400.248456
4463.890325
4422.069768
4427.318291
4428.288853
4427.799014
4428.055707
4427.169614
4427.793485
4426.992964
4427.184153
4426.719970
4427.031869
4427.622337
4426.531651
4426.655442
4424.907335
4425.948886
4414.902807
4426.743463
4412.052037
4484.443339
4392.838021
4427.384608
4499.374043
4447.879056
4476.991903
4450.186622
4465.113699
4421.482793
4428.669096
4435.167314
4389.104917
4417.819977
4427.313677
4428.112991
4428.205455
4427.119997
4428.343458
4426.899336
4427.806984
4426.800119
4426.650640
4425.190919
4425.458200
4423.434982
4426.038363
4424.228102
4424.398962
4439.384652
4423.259395
4438.939458
4439.065946
4376.002676
4404.926985
4475.548752
4467.902981
4479.863354
4417.390211
4397.993287
4430.741639
4461.783295
4456.335407
4457.060414
4424.130563
4427.488400
4427.781395
4428.490604
4426.856826
4427.814762
4425.676059
4427.397114
4424.558235
4426.052605
4425.790527
4426.409354
4427.331331
4425.029399
4423.123501
4427.215811
4432.070143
4389.188089
4456.017152
4453.635239
4385.852885
4435.087958
4451.836624
4433.699042
4441.287155
4426.719814
4432.002069
4424.987661
4407.092063
4433.231759
4389.310071
4423.641669
4427.646006
4428.294947
4427.833617
4427.566298
4427.067369
4427.297375
4427.168039
4427.255532
4427.520023
4426.444244
4427.195012
4423.781298
4426.139242
4422.656482
4423.068060
4431.352821
4439.307367
4417.835981
4392.088182
4418.343689
4452.030599
4759.412597
4443.986330
4457.574698
4483.135971
4439.928782
4406.096289
4398.316213
4425.682772
4352.320317
4426.864692
4427.671191
4427.931133
4428.406229
4426.755446
4428.407145
4426.847657
4428.186907
4426.939777
4427.979756
4427.512538
4427.994513
4426.166363
4424.254854
4424.417518
4422.000777
4431.739206
4448.974701
4451.633383
4415.353782
4449.199043
4446.990932
4483.434240
4445.449990
4374.002709
4449.827205
4457.870385
4410.659335
4445.860281
4417.024710
4511.047893
4424.164989
4427.608419
4428.026246
4428.587571
4427.587466
4428.478701
4427.170564
4428.376814
4426.677306
4428.230307
4424.911821
4424.847043
4423.479858
4424.768580
4422.112187
4425.622399
4422.950858
4417.373453
4442.010697
4410.358239
4431.551915
4504.099842
4509.276435
4506.408078
4468.921992
4437.322827
4458.382400
4448.732071
4436.530716
4421.604128
4359.246859
4435.936345
4428.052850
4428.758168
4427.929306
4428.427944
4427.340464
4427.959480
4426.599935
4426.913747
4425.948882
4425.732618
4425.632477
4423.211913
4424.628762
4422.737807
4424.457975
4432.956998
4421.929900
4436.247606
4440.502428
4458.437554
4409.289547
4530.729451
4489.474535
4447.656011
4407.363441
4429.107525
4455.678710
4438.174756
4391.594348
4389.581729
4409.934798