# vtk DataFile Version 2.0
mfree iwf
ASCII

DATASET UNSTRUCTURED_GRID
POINTS 11592 float
-0.000000 0.000445 0.000000
0.000000 0.000450 0.000000
-0.000000 0.000455 0.000000
-0.000000 0.000460 0.000000
-0.000000 0.000465 0.000000
-0.000000 0.000470 0.000000
-0.000000 0.000475 0.000000
-0.000000 0.000480 0.000000
0.000000 0.000485 0.000000
0.000000 0.000490 0.000000
-0.000000 0.000496 0.000000
0.000002 0.000500 0.000000
0.001095 0.000991 0.000000
0.001104 0.000989 0.000000
0.001149 0.000973 0.000000
0.001153 0.000970 0.000000
0.001153 0.000970 0.000000
0.001160 0.000967 0.000000
0.001166 0.000963 0.000000
0.001162 0.000966 0.000000
0.001175 0.000959 0.000000
0.001199 0.000947 0.000000
0.001204 0.000942 0.000000
0.001207 0.000938 0.000000
0.001210 0.000935 0.000000
0.001213 0.000931 0.000000
0.001217 0.000927 0.000000
0.001220 0.000923 0.000000
0.001222 0.000920 0.000000
0.001227 0.000915 0.000000
0.001231 0.000911 0.000000
0.001249 0.000898 0.000000
0.000005 0.000445 0.000000
0.000005 0.000450 0.000000
0.000005 0.000455 0.000000
0.000005 0.000460 0.000000
0.000005 0.000465 0.000000
0.000005 0.000470 0.000000
0.000005 0.000475 0.000000
0.000005 0.000480 0.000000
0.000005 0.000485 0.000000
0.000006 0.000490 0.000000
0.000003 0.000496 0.000000
0.000006 0.000499 0.000000
0.001144 0.000973 0.000000
0.001147 0.000964 0.000000
0.001181 0.000954 0.000000
0.001186 0.000951 0.000000
0.001191 0.000948 0.000000
0.001194 0.000946 0.000000
0.001196 0.000944 0.000000
0.001198 0.000940 0.000000
0.001201 0.000937 0.000000
0.001206 0.000933 0.000000
0.001211 0.000927 0.000000
0.001215 0.000923 0.000000
0.001218 0.000917 0.000000
0.001225 0.000911 0.000000
0.001227 0.000907 0.000000
0.001231 0.000904 0.000000
0.001241 0.000899 0.000000
0.001243 0.000898 0.000000
0.001239 0.000902 0.000000
0.001247 0.000896 0.000000
0.000010 0.000445 0.000000
0.000010 0.000450 0.000000
0.000010 0.000455 0.000000
0.000010 0.000460 0.000000
0.000010 0.000465 0.000000
0.000010 0.000469 0.000000
0.000009 0.000475 0.000000
0.000011 0.000480 0.000000
0.000009 0.000486 0.000000
0.000012 0.000489 0.000000
0.000008 0.000497 0.000000
0.000011 0.000498 0.000000
0.001143 0.000969 0.000000
0.001150 0.000962 0.000000
0.001166 0.000958 0.000000
0.001174 0.000956 0.000000
0.001178 0.000954 0.000000
0.001183 0.000952 0.000000
0.001173 0.000950 0.000000
0.001181 0.000945 0.000000
0.001187 0.000944 0.000000
0.001192 0.000940 0.000000
0.001200 0.000933 0.000000
0.001205 0.000929 0.000000
0.001204 0.000922 0.000000
0.001209 0.000920 0.000000
0.001213 0.000919 0.000000
0.001221 0.000912 0.000000
0.001234 0.000902 0.000000
0.001235 0.000900 0.000000
0.001240 0.000894 0.000000
0.001241 0.000888 0.000000
0.000014 0.000445 0.000000
0.000016 0.000450 0.000000
0.000014 0.000455 0.000000
0.000018 0.000460 0.000000
0.000015 0.000470 0.000000
0.000015 0.000464 0.000000
0.000014 0.000476 0.000000
0.000017 0.000480 0.000000
0.000014 0.000485 0.000000
0.000016 0.000489 0.000000
0.000014 0.000495 0.000000
0.000016 0.000498 0.000000
0.000025 0.000500 0.000000
0.001154 0.000962 0.000000
0.001169 0.000957 0.000000
0.001164 0.000954 0.000000
0.001177 0.000948 0.000000
0.001186 0.000949 0.000000
0.001186 0.000940 0.000000
0.001195 0.000935 0.000000
0.001190 0.000933 0.000000
0.001196 0.000931 0.000000
0.001204 0.000917 0.000000
0.001207 0.000926 0.000000
0.001213 0.000913 0.000000
0.001218 0.000913 0.000000
0.001217 0.000907 0.000000
0.001222 0.000906 0.000000
0.001226 0.000901 0.000000
0.001230 0.000898 0.000000
0.001232 0.000894 0.000000
0.001239 0.000886 0.000000
0.000019 0.000445 0.000000
0.000021 0.000450 0.000000
0.000018 0.000455 0.000000
0.000022 0.000458 0.000000
0.000018 0.000467 0.000000
0.000025 0.000467 0.000000
0.000018 0.000475 0.000000
0.000022 0.000479 0.000000
0.000019 0.000486 0.000000
0.000021 0.000491 0.000000
0.000020 0.000497 0.000000
0.000022 0.000499 0.000000
0.000039 0.000500 0.000000
0.001150 0.000952 0.000000
0.001157 0.000956 0.000000
0.001163 0.000948 0.000000
0.001169 0.000953 0.000000
0.001180 0.000941 0.000000
0.001178 0.000938 0.000000
0.001191 0.000929 0.000000
0.001181 0.000934 0.000000
0.001194 0.000925 0.000000
0.001193 0.000916 0.000000
0.001198 0.000911 0.000000
0.001204 0.000911 0.000000
0.001212 0.000906 0.000000
0.001216 0.000898 0.000000
0.001223 0.000897 0.000000
0.001226 0.000894 0.000000
0.001233 0.000889 0.000000
0.001236 0.000891 0.000000
0.001236 0.000883 0.000000
0.000024 0.000445 0.000000
0.000026 0.000450 0.000000
0.000025 0.000456 0.000000
0.000026 0.000461 0.000000
0.000021 0.000466 0.000000
0.000025 0.000473 0.000000
0.000023 0.000476 0.000000
0.000027 0.000481 0.000000
0.000023 0.000485 0.000000
0.000026 0.000488 0.000000
0.000026 0.000493 0.000000
0.000027 0.000500 0.000000
0.001125 0.000982 0.000000
0.001157 0.000959 0.000000
0.001161 0.000958 0.000000
0.001175 0.000943 0.000000
0.001166 0.000943 0.000000
0.001187 0.000937 0.000000
0.001184 0.000930 0.000000
0.001174 0.000937 0.000000
0.001181 0.000925 0.000000
0.001199 0.000927 0.000000
0.001197 0.000919 0.000000
0.001199 0.000923 0.000000
0.001208 0.000915 0.000000
0.001209 0.000909 0.000000
0.001220 0.000901 0.000000
0.001216 0.000902 0.000000
0.001228 0.000890 0.000000
0.001221 0.000892 0.000000
0.001230 0.000886 0.000000
0.001232 0.000879 0.000000
0.000030 0.000445 0.000000
0.000030 0.000450 0.000000
0.000029 0.000455 0.000000
0.000030 0.000460 0.000000
0.000032 0.000464 0.000000
0.000028 0.000468 0.000000
0.000031 0.000472 0.000000
0.000031 0.000477 0.000000
0.000031 0.000486 0.000000
0.000031 0.000492 0.000000
0.000033 0.000497 0.000000
0.000030 0.000499 0.000000
0.000048 0.000500 0.000000
0.001146 0.000958 0.000000
0.001158 0.000947 0.000000
0.001169 0.000946 0.000000
0.001164 0.000943 0.000000
0.001171 0.000940 0.000000
0.001176 0.000929 0.000000
0.001188 0.000918 0.000000
0.001188 0.000926 0.000000
0.001191 0.000921 0.000000
0.001200 0.000915 0.000000
0.001202 0.000902 0.000000
0.001205 0.000906 0.000000
0.001208 0.000902 0.000000
0.001212 0.000893 0.000000
0.001212 0.000899 0.000000
0.001218 0.000887 0.000000
0.001224 0.000888 0.000000
0.001228 0.000882 0.000000
0.001229 0.000876 0.000000
0.000035 0.000445 0.000000
0.000035 0.000450 0.000000
0.000034 0.000456 0.000000
0.000038 0.000454 0.000000
0.000035 0.000467 0.000000
0.000036 0.000472 0.000000
0.000031 0.000479 0.000000
0.000041 0.000478 0.000000
0.000034 0.000483 0.000000
0.000034 0.000488 0.000000
0.000037 0.000491 0.000000
0.000036 0.000498 0.000000
0.001083 0.000991 0.000000
0.001120 0.000984 0.000000
0.001154 0.000950 0.000000
0.001158 0.000941 0.000000
0.001171 0.000932 0.000000
0.001163 0.000931 0.000000
0.001179 0.000931 0.000000
0.001177 0.000924 0.000000
0.001185 0.000923 0.000000
0.001176 0.000915 0.000000
0.001184 0.000908 0.000000
0.001198 0.000903 0.000000
0.001199 0.000907 0.000000
0.001204 0.000898 0.000000
0.001216 0.000892 0.000000
0.001207 0.000882 0.000000
0.001219 0.000883 0.000000
0.001221 0.000882 0.000000
0.001224 0.000878 0.000000
0.001225 0.000872 0.000000
0.000040 0.000445 0.000000
0.000041 0.000450 0.000000
0.000036 0.000461 0.000000
0.000040 0.000459 0.000000
0.000042 0.000463 0.000000
0.000039 0.000468 0.000000
0.000041 0.000473 0.000000
0.000037 0.000478 0.000000
0.000041 0.000487 0.000000
0.000042 0.000491 0.000000
0.000041 0.000497 0.000000
0.000044 0.000498 0.000000
0.000932 0.000948 0.000000
0.001143 0.000966 0.000000
0.001146 0.000954 0.000000
0.001154 0.000937 0.000000
0.001168 0.000936 0.000000
0.001171 0.000927 0.000000
0.001167 0.000931 0.000000
0.001181 0.000919 0.000000
0.001188 0.000912 0.000000
0.001193 0.000912 0.000000
0.001184 0.000914 0.000000
0.001187 0.000898 0.000000
0.001197 0.000897 0.000000
0.001203 0.000893 0.000000
0.001207 0.000897 0.000000
0.001207 0.000891 0.000000
0.001212 0.000888 0.000000
0.001213 0.000879 0.000000
0.001220 0.000875 0.000000
0.001221 0.000869 0.000000
0.000044 0.000445 0.000000
0.000046 0.000450 0.000000
0.000044 0.000455 0.000000
0.000046 0.000460 0.000000
0.000044 0.000468 0.000000
0.000046 0.000474 0.000000
0.000045 0.000479 0.000000
0.000040 0.000483 0.000000
0.000051 0.000485 0.000000
0.000045 0.000483 0.000000
0.000048 0.000493 0.000000
0.000050 0.000498 0.000000
0.000938 0.000952 0.000000
0.001139 0.000975 0.000000
0.001159 0.000951 0.000000
0.001162 0.000936 0.000000
0.001159 0.000935 0.000000
0.001170 0.000922 0.000000
0.001172 0.000919 0.000000
0.001177 0.000918 0.000000
0.001179 0.000908 0.000000
0.001189 0.000906 0.000000
0.001194 0.000908 0.000000
0.001198 0.000892 0.000000
0.001193 0.000896 0.000000
0.001199 0.000889 0.000000
0.001207 0.000886 0.000000
0.001212 0.000883 0.000000
0.001209 0.000878 0.000000
0.001214 0.000876 0.000000
0.001217 0.000872 0.000000
0.001218 0.000866 0.000000
0.000049 0.000445 0.000000
0.000052 0.000450 0.000000
0.000049 0.000455 0.000000
0.000053 0.000455 0.000000
0.000048 0.000465 0.000000
0.000049 0.000471 0.000000
0.000053 0.000468 0.000000
0.000051 0.000477 0.000000
0.000047 0.000488 0.000000
0.000052 0.000491 0.000000
0.000057 0.000492 0.000000
0.000053 0.000498 0.000000
0.001026 0.000987 0.000000
0.001130 0.000972 0.000000
0.001141 0.000962 0.000000
0.001153 0.000940 0.000000
0.001158 0.000928 0.000000
0.001166 0.000925 0.000000
0.001161 0.000922 0.000000
0.001166 0.000920 0.000000
0.001173 0.000910 0.000000
0.001180 0.000912 0.000000
0.001176 0.000906 0.000000
0.001188 0.000903 0.000000
0.001188 0.000890 0.000000
0.001193 0.000901 0.000000
0.001198 0.000884 0.000000
0.001200 0.000878 0.000000
0.001202 0.000884 0.000000
0.001210 0.000872 0.000000
0.001213 0.000868 0.000000
0.001214 0.000863 0.000000
0.000054 0.000445 0.000000
0.000058 0.000450 0.000000
0.000054 0.000459 0.000000
0.000051 0.000462 0.000000
0.000060 0.000466 0.000000
0.000053 0.000473 0.000000
0.000058 0.000476 0.000000
0.000056 0.000481 0.000000
0.000052 0.000483 0.000000
0.000057 0.000486 0.000000
0.000056 0.000497 0.000000
0.000059 0.000496 0.000000
0.001048 0.000989 0.000000
0.001139 0.000976 0.000000
[...]
POINT_DATA 11592
SCALARS density float 1
LOOKUP_TABLE default
4428.484877
4434.591092
4428.012535
4420.910707
4427.348871
4426.540098
4430.549815
4433.698713
4430.402090
4421.649606
4432.765071
4402.257921
4428.959258
4418.656220
4417.658431
4444.584832
4445.700400
4440.716007
4445.687967
4453.105450
4424.312846
4427.167537
4398.268343
4431.177773
4426.450234
4422.438221
4452.785981
4417.713287
4413.812049
4447.331252
4422.981401
4401.705109
4431.222701
4424.578551
4417.182538
4435.986064
4444.248536
4422.210774
4429.357933
4424.656473
4412.483127
4428.384692
4453.892938
4407.549395
4412.943549
4406.531768
4421.434719
4409.201044
4425.092438
4435.373504
4444.480583
4455.902428
4452.546438
4435.083518
4412.017149
4397.077130
4443.647725
4393.244040
4431.449418
4458.179605
4422.674190
4433.710876
4406.071345
4402.566868
4419.844920
4427.693810
4453.908222
4420.727209
4407.686329
4417.991869
4447.096379
4383.172337
4475.656372
4373.069446
4450.651487
4400.319547
4461.783448
4466.234877
4433.216360
4400.297109
4418.684004
4410.427808
4462.494662
4444.359707
4427.709072
4380.043858
4416.314375
4433.955985
4395.394209
4455.200436
4440.873074
4395.969488
4420.220022
4427.163431
4451.145508
4405.156649
4422.711634
4438.055761
4431.438527
4414.566195
4426.953516
4452.676043
4473.606512
4386.117397
4478.670988
4381.136024
4516.129930
4398.200482
4436.351205
4365.578122
4424.903672
4441.136366
4470.415742
4449.341213
4405.930242
4388.484152
4442.055565
4418.170259
4441.182736
4438.985590
4389.749155
4480.742647
4419.024936
4479.461195
4442.825073
4364.615140
4496.406474
4441.654560
4442.779637
4431.525412
4431.678669
4451.462405
4426.997915
4445.539461
4405.000645
4457.694295
4470.297238
4379.507747
4465.933978
4434.290207
4416.981378
4412.500155
4478.484394
4415.035544
4463.165978
4416.876190
4459.500446
4430.830903
4417.686179
4398.572703
4432.806040
4427.111627
4423.037396
4437.865069
4425.956764
4460.140673
4460.333154
4393.647564
4400.160727
4419.063122
4432.482185
4445.498144
4435.539296
4401.021695
4426.987613
4410.286450
4475.074323
4360.377760
4427.125356
4475.361114
4410.195640
4425.498019
4438.900640
4420.536149
4391.654994
4391.866733
4457.580199
4467.095701
4390.857643
4418.895954
4467.339218
4453.335801
4426.402184
4455.740236
4437.799737
4470.955109
4382.059965
4437.456933
4406.610707
4420.867156
4486.543230
4414.042167
4418.764040
4433.010383
4411.324176
4452.105030
4415.958397
4456.849056
4384.063849
4463.448316
4453.586428
4410.932601
4457.996679
4419.091398
4423.978458
4442.702009
4467.288885
4399.186804
4422.159214
4474.807121
4426.516576
4424.177214
4439.168424
4439.650806
4421.053109
4452.541473
4422.845699
4385.355203
4403.526956
4453.852163
4416.533191
4388.969692
4405.765495
4444.441886
4430.823500
4419.468476
4449.596381
4424.550909
4444.245658
4431.729816
4449.474442
4430.740741
4392.154611
4431.855163
4412.458793
4444.861870
4414.750008
4422.128458
4403.164936
4406.119565
4432.232543
4434.621920
4460.256219
4405.456258
4420.037933
4429.139522
4401.134742
4456.335416
4418.205687
4450.284420
4445.215694
4442.059764
4448.715571
4453.768454
4412.546704
4415.672516
4433.589125
4425.661706
4401.631925
4445.283989
4432.081677
4440.188855
4422.518889
4424.589370
4452.894952
4427.921514
4433.640709
4427.744073
4427.329390
4463.251577
4406.798478
4428.061733
4413.319063
4442.466561
4453.939293
4411.718667
4412.822003
4432.698983
4440.584656
4404.864731
4408.934977
4419.233826
4443.791608
4423.519482
4438.339803
4410.282075
4417.296033
4431.628629
4428.080331
4419.352538
4426.719126
4426.179511
4402.777957
4451.515819
4428.990108
4437.622312
4459.884578
4406.831049
4465.280027
4429.654664
4433.964808
4440.693732
4389.265677
4425.771668
4439.618841
4449.987627
4449.583983
4454.295846
4450.127513
4455.972958
4420.093172
4441.310816
4456.660534
4443.669561
4443.568798
4413.815578
4445.903860
4425.327945
4450.585843
4424.489799
4426.369665
4428.120087
4441.668364
4414.907184
4439.470925
4440.912921
4424.898325
4379.175142
4393.767810
4424.376687
4539.635207
4404.207098
4437.559978
4430.541088
4396.458704
4442.879318
4432.942203
4391.595019
4468.524568
4413.499952
4398.333337
4431.847722
4452.124633
4460.898382
4402.906940
4387.667648
4465.433049
4419.836125
4394.407724
4409.714227
4424.894091
4431.859080
4446.189134
4419.577123
4443.879498
4411.676912
4428.551319
4443.535565
4430.020160
4451.285994
4480.043866
4340.147301
4407.115002
4393.322535
4430.225050
4430.402844
4425.494993
4415.693217
4443.356601
4434.182097
4396.184885
4444.838809
4413.401063
4408.690081
4452.749678
4405.356106
4449.296439
4411.561289
4465.590366
4425.616937
4428.034683
4437.467153
4434.890242
4419.845406
4421.214799
4423.882183
4414.371658
4397.063994
4430.753083
4445.988626
4424.786845
4448.242287
4458.450497
4422.047231
4444.770418
4442.759048
4411.104929
4427.342889
4435.247958
4393.690543
4401.758826
4429.670437
4445.033976
4428.797657
4451.826128
4447.631155
4428.833787
4405.582654
4411.393913
4461.385093
4424.309550
4401.045409
4426.023656
4435.882580
4439.836882
4433.945208
4438.910064
4433.049367
4455.235167
4405.385287
4431.518167
4433.005870
4384.512175
4410.006555
4430.066211
4380.113372
4439.317628
4455.544731
4413.245566
4434.353731
4409.696129
4384.760621
4438.998869
4367.128344
4443.305248
4419.921548
4431.792717
4411.430402
4460.867592
4436.476386
4394.264062
4468.172084
4427.396036
4408.203199
4417.083483
4439.918037
4415.157604
4439.273532
4413.461391
4422.378846
4442.144427
4457.331628
4437.441904
4444.071893
4449.432909
4413.250111
4391.550303
4441.920933
4445.006373
4453.358917
4427.848528
4441.561763
4429.434627
4457.532816
4449.545844
4468.200410
4450.310907
4435.741227
4397.638380
4428.401208
4421.588520
4435.291894
4449.228909
4432.184876
4420.619056
4419.726875
4433.212821
4425.167274
4424.604012
4432.289660
4441.149779
4399.350461
4426.086195
4388.036182
4422.161861
4389.449727
4457.993686
4429.354954
4447.409261
4388.454915
4379.350375
4458.510833
4436.000069
4421.424859
4430.773436
4446.330642
4445.764384
4414.519369
4409.206048
4419.843317
4402.261026
4425.630879
4421.519094
4451.904020
4386.335143
4457.152120
4395.766494
4440.910057
4433.274476
4407.741143
4441.198907
4421.968507
4427.829210
4438.489803
4443.028174
4442.784432
4442.654352
4417.770752
4412.934454
4436.611459
4429.355836
4385.682312
4404.264648
4429.134841
4425.938631
4421.340021
4432.182208
4436.795016
4479.442726
4442.716603
4426.680033
4446.869344
4409.390290
4448.781038
4443.231665
4412.916535
4427.776235
4410.228650
4422.401517
4452.024797
4410.167200
4448.566868
4427.283276
4443.089135
4442.257142
4437.982827
4448.792010
4423.170196
4422.451609
4434.979577
4419.509734
4444.224203
4381.785640
4504.266822
4431.336779
4472.490414
4431.657863
4428.021330
4441.891321
4435.520461
4466.665753
4428.835696
4483.602599
4488.180831
4441.959461
4430.241950
4425.824712
4434.175649
4430.337124
4437.703817
4397.519294
4416.901601
4436.124422
4450.146170
4414.593406
4431.687949
4417.868268
4429.998543
4412.113287
4430.249439
4444.598139
4430.523818
4449.973584
4441.490213
4452.623144
4433.407041
4386.351981
4424.620987
4414.497129
4418.945663
4434.416503
4448.797168
4424.604936
4427.337571
4438.903069
4429.238138
4443.046700
4434.770753
4435.740329
4418.921471
4421.674529
4414.403479
4448.283628
4454.042743
4437.240736
4403.465008
4430.141015
4429.945959
4456.610419
4406.162684
4435.615966
4443.368280
4421.766534
4417.270612
4449.211714
4431.056327
4425.974488
4436.312227
4424.577279
4434.196726
4413.441325
4444.810528
4443.240767
4471.349367
4429.517407
4441.160511
4431.128572
4445.018731
4490.641966
4433.764771
4457.998609
4439.696253
4405.456992
4409.674283
4450.136051
4407.947506
4420.271877
4441.422697
4443.798356
4433.909939
4429.059981
4438.180035
4451.661747
4408.910512
4425.116932
4455.949068
4404.883640
4401.626242
4450.216233
4471.148745
4390.575393
4504.265185
4425.192746
4422.493909
4425.816534
4479.870282
4440.059469
4418.825899
4352.653349
4437.404158
4385.465216
4449.080665
4481.515513
4437.675774
4458.845418
4446.466450
4408.403506
4458.096011
4444.869475
4432.167206
4405.369755
4433.671120
4437.375326
4425.298467
4435.825842
4425.927277
4459.925570
4437.216476
4451.383393
4437.731856
4454.192477
4356.805843
4431.632545
4429.710838
4433.762533
4423.309075
4433.086173
4452.747744
4450.918341
4403.875687
4446.231552
4416.894009
4397.117033
4356.959672
4449.607702
4396.086289
4424.593959
4422.245846
4435.706582
4418.075005
4438.277615
4430.780415
4435.465916
4435.098143
4414.469008
4430.714801
4399.056360
4416.763088
4423.807455
4404.498662
4442.879113
4417.148697
4463.695002
4392.609913
4412.618228
4447.427458
4431.856379
4459.562959
4380.335719
4439.971108
4436.415738
4442.562404
4431.019387
4462.119278
4442.846288
4369.960745
4365.058651
4445.458794
4385.668755
4397.553292
4417.728443
4451.281223
4428.480756
4431.477301
4408.472017
4419.966207
4431.424926
4429.226027
4453.486864
4423.916964
4426.551543
4437.713273
4419.181964
4429.061223
4456.596483
4446.587622
4450.792196
4427.753965
4466.703578
4424.384491
4439.715887
4381.962131
4356.409343
4419.931467
4394.132757
4416.577515
4374.293456
4446.805586
4444.301367
4465.005210
4450.896771
4447.058632
4420.624501
4430.116538
4456.587918
4403.925124
4450.943307
4424.913478
4428.130592
4430.489560
4430.671886
4430.781363
4430.586052
4430.064954
4429.694325
4429.252761
4429.459786
4430.151800
4431.178268
4431.650290
4431.418344
4430.580027
4429.954067
4428.913265
4429.894264
4428.849572
4428.929852
4429.700060
4430.810362
4432.239858
4433.348214
4433.507024
4431.944614
4429.777179
4428.431916
4428.560223
4430.336833
4431.494314
4429.442507
4430.171197
4431.341718
4431.660127
4431.130111
4429.842788
4428.545620
4427.004357
4427.086964
4428.636576
4431.429897
4432.928317
4432.056355
4430.837530
4427.989667
4429.757238
4429.702773
4428.477882
4428.365800
4428.953604
4430.479698
4431.864082
4433.832560
4433.617380
4432.168945
4428.976740
4427.139084
4426.871190
4428.711566
4430.172008
4429.905207
4429.995795
4431.324075
4431.733988
4430.966138
4429.772832
4428.123456
4426.336518
4426.349966
4427.830675
4430.967089
4432.489149
4432.782079
4429.070309
4429.756384
4429.771398
4429.523671
4428.539129
4427.741191
4429.111613
4429.715398
4432.063614
4433.007890
4433.993810
4431.098833
4429.321750
4425.979980
4427.345069
4428.358632
4429.258866
4429.941275
4429.725063
4431.486581
4431.437918
4430.946709
4429.456458
4427.917638
4426.001665
4425.991867
4427.540183
4430.361560
4432.525597
4431.090101
4428.599405
4427.438428
4429.576063
4429.425809
4428.421903
4427.677637
4428.689204
4429.791251
4431.475965
4433.112042
4433.377989
4431.293349
4428.674621
4425.827226
4427.166607
4427.000643
4428.928621
4429.236805
4429.950397
4430.939616
4431.397197
4430.918959
4429.024815
4427.994311
4425.492128
4426.121560
4426.882886
4430.654245
4432.269281
4432.359750
4429.667246
4430.600357
4429.372833
4429.407962
4428.169663
4427.657948
4428.319580
4429.809097
4430.992592
4433.041472
4432.972628
4431.223391
4428.531811
4425.810759
4427.769366
4429.182059
4429.292003
4429.300185
4429.865657
4430.814561
4431.503656
4430.322672
4429.326689
4427.092441
4425.986478
4425.437730
4427.144476
4429.771486
4432.869696
4430.394944
4429.646180
4426.890630
4429.207962
4429.405641
4427.932243
4427.433472
4428.150754
4429.424622
4430.925893
4432.689191
4432.919149
4431.073707
4428.177609
4425.681176
4426.883013
4427.512500
4428.067285
4429.065095
4429.549074
4430.843999
4431.199220
4430.293079
4428.913114
4427.261449
4425.528377
4425.782977
4426.484759
4430.086862
4432.307968
4431.919002
4429.027398
4430.864539
4448.768816
4435.139850
4443.576088
4425.984460
4421.297846
4451.204182
4424.786107
4415.647944
4405.374073
4459.792533
4466.077139
4397.034621
4430.607319
4458.550134
4431.293733
4424.684197
4428.935405
4429.145844
4428.067507
4426.754538
4428.355594
4428.898766
4430.884292
4432.406750
4432.648003
4430.763455
4428.305997
4425.255056
4427.822762
4429.053393
4430.250953
4435.484737
4418.657181
4423.550016
4423.193576
4428.080706
4434.919638
4437.305004
4431.166131
4398.574026
4401.797400
4414.615562
4429.717847
4437.119447
4383.965999
4415.445821
4410.631437
4428.663668
4429.461164
4430.580548
4431.114828
4430.116165
4428.602884
4427.349650
4425.137689
4426.035380
4426.008906
4429.594725
4432.310833
4430.996013
4429.161381
4429.301158
4442.261403
4440.693142
4432.665284
4423.958500
4404.708459
4445.887074
4416.088771
4425.814180
4404.052733
4432.577076
4440.496097
4440.606502
4432.717473
4437.726890
4444.260288
4424.268287
4428.757102
4429.262715
4427.610296
4426.978781
4427.607239
4429.387142
4429.948633
4432.836200
4431.490976
4431.100074
4427.669048
4424.667213
4426.895857
4426.384663
4429.243042
4431.647095
4435.275365
4417.915381
4391.794308
4395.315622
4446.125990
4441.399578
4423.622257
4436.014128
4458.363429
4438.935122
4435.992517
4368.458833
4393.431007
4443.624291
4452.494700
4428.433367
4429.560731
4430.212694
4431.105474
4429.983947
4428.529694
4427.065923
4425.253795
4425.672229
4425.765745
4428.759405
4432.329059
4429.567203
4427.753824
4427.371939
4452.291156
4403.530575
4426.110474
4447.783383
4442.391801
4436.378844
4438.815898
4465.149892
4415.279984
4435.333712
4385.739064
4449.802699
4411.305096
4420.589060
4431.865126
4421.269489
4428.332962
4429.152107
4427.470770
4426.923542
4427.349143
4429.378777
4429.759099
4432.471984
4431.423482
4430.591249
4427.644884
4424.375803
4426.207989
4427.636289
4424.983609
4432.745638
4423.015513
4411.920507
4409.861461
4469.124401
4394.762090
4427.770306
4435.717465
4447.388462
4401.555030
4395.276555
4409.153460
4426.345152
4419.884226
4448.627284
4417.750143
4428.493788
4429.575864
4429.992703
4431.230556
4429.658879
4428.765535
4426.496074
4425.745787
4425.384974
4425.842455
4428.159642
4432.437926
4428.747610
4428.214138
4428.397692
4428.870359
4458.939611
4470.768757
4417.056082
4358.223112
4441.875582
4437.347105
4430.244682
4414.933120
4440.791753
4434.454605
4461.730965
4446.285538
4412.580291
4489.292501
4411.293403
4428.140593
4429.057382
4427.355389
4426.696380
4427.183861
4429.046500
4429.605902
4432.358910
4431.185741
4430.724548
4427.631958
4424.399312
4427.231798
4426.564337
4425.860105
4405.179895
4453.221895
4439.023514
4385.661079
4395.826266
4486.699377
4424.569197
4425.466118
4429.549933
4419.087371
4440.196851
4389.291766
4460.644638
4387.519556
4434.333332
4422.897761
4428.288610
4429.202053
4430.163545
4430.799892
4429.862106
4428.160538
4426.894789
4425.373086
4426.383032
4425.040695
4428.700722
4432.335875
4429.616039
4428.753749
4427.131446
4440.610535
4434.318248
4416.550037
4414.781323
4444.012382
4436.488464
4425.835678
4422.133896
4445.929148
4426.374586
4417.289458
4410.812459
4465.153602
4445.525086
4407.918568
4401.826578
4428.159960
4428.671475
4427.670607
4426.097582
4427.448592
4428.341319
4429.892755
4431.838467
4431.422791
4430.496325
4427.650278
4424.413131
4426.748359
4426.646831
4427.743561
4436.725610
4434.956020
4421.763769
4474.708896
4369.110868
4420.312753
4423.170888
4440.605075
4413.958055
4441.716047
4451.932261
4443.271018
4400.957219
4429.482659
4402.112847
4441.693861
4428.121415
4429.071350
4430.015445
4430.701651
4429.812843
4428.032391
4426.809049
4425.770369
4426.330852
4424.888610
4428.208452
4432.191707
4430.065097
4428.138841
4427.868244
4416.400131
4450.478238
4387.819497
4467.462044
4459.168635
4432.973740
4454.880380
4470.272817
4396.548647
4439.196822
4425.176914
4444.280776
4467.125892
4397.268731
4466.101042
4402.729399
4428.023826
4428.886623
4427.231461
4426.613490
4426.526616
4428.938385
4429.129989
4431.884054
4431.112236
4430.335893
4427.240964
4424.054856
4425.361144
4426.200221
4424.706931
4430.272022
4478.971956
4453.150879
4393.289563
4427.520830
4427.912878
4426.685202
4445.646294
4452.954409
4441.228827
4458.529409
4413.130019
4425.129579
4413.688908
4419.873884
4427.396437
4427.836083
4429.427476
4429.362088
4430.964093
4429.884611
4428.002451
4426.692566
4426.369963
4425.836538
4425.045282
4427.237473
4432.074091
4428.286439
4427.191156
4425.083563
4412.472885
4414.280748
4434.688696
4408.469576
4411.624968
4443.161303
4443.576240
4432.585696
4439.460552
4431.983834
4438.416634
4442.662590
4422.734360
4423.272029
4484.248628
4442.592226
4427.734865
4429.106534
4426.950718
4426.974149
4426.015711
4429.491924
4428.476366
4432.247968
4430.491591
4430.510682
4426.683054
4424.255206
4424.775979
4425.348468
4425.964531
4423.575749
4433.605020
4403.093949
4462.982411
4457.420795
4421.263312
4426.203632
4434.492028
4412.191470
4435.500216
4424.950717
4451.726322
4411.976616
4409.429714
4398.040102
4451.327792
4427.661564
4429.666284
4428.951956
4431.550649
4429.242191
4428.531506
4425.929794
4427.092638
4425.501040
4425.395126
4426.785162
4431.943291
4428.456959
4427.861952
4424.434261
4422.021929
4428.579116
4399.408926
4456.601159
4420.699214
4433.487034
4418.663066
4445.399060
4422.442926
4432.663544
4411.997101
4414.818292
4455.836535
4456.742045
4411.014651
4398.850193
4427.865406
4428.975056
4427.210267
4426.481196
4426.507498
4428.491165
4428.850728
4432.365392
4430.273525
4430.830225
4426.906768
4424.938424
4424.117536
4425.869714
4424.029230
4437.519707
4439.444262
4424.497058
4411.247984
4421.472974
4443.608027
4417.528758
4427.459806
4426.162007
4453.512778
4441.170179
4428.040047
4442.984577
4404.986583
4421.636761
4429.586648
4427.896881
4429.131853
4429.602982
4431.060532
4429.335977
4428.387988
4426.479041
4426.662709
4426.986927
4424.986253
4426.702401
4432.020920
4430.102843
4427.423107
4426.435826
4415.684382
4417.070322
4438.629408
4453.362304
4397.257930
4427.872534
4441.579622
4412.299515
4450.179026
4423.268804
4448.107843
4385.638898
4415.140650
4434.329474
4391.211099
4411.143685
4428.199377
4428.900699
4427.400286
4426.308991
4426.475856
4427.896788
4429.395747
4431.791967
4430.734499
4430.139717
4428.026532
4423.883409
4425.263436
4425.186597
4426.163336
4445.805733
4451.308933
4439.595595
4455.213696
4376.799749
4418.374594
4440.947507
4360.307217
4469.332348
4450.748148
4441.808937
4397.673606
4454.866237
4443.783468
4400.549157
4425.370659
4427.966198
4428.691333
4429.852602
4430.272520
4430.342542
4427.292743
4427.541908
4426.165493
4427.708767
4424.234985
4426.537101
4432.580381
4428.792555
4426.627396
4426.776249
4436.488679
4420.482566
4419.792314
4460.637527
4378.894084
4434.186249
4438.510490
4431.905038
4473.651286
4460.574671
4469.401248
4415.044679
4421.410639
4444.310186
4363.828720
4422.431475
4427.983847
4429.255740
4427.242388
4426.891504
4425.522322
4429.184796
4428.581917
4432.079268
4431.066836
4430.873059
4427.160319
4424.553207
4423.896677
4424.071714
4424.938315
4432.985638
4430.029662
4411.854310
4383.426976
4423.406024
4444.141142
4431.225604
4420.669853
4382.691612
4454.773017
4412.274719
4418.852585
4401.978253
4414.164594
4421.355186
4446.898020
4427.724999
4429.534612
4428.352491
4431.906983
4429.807547
4428.581400
4427.009399
4428.461803
4426.193838
4424.592562
4427.229489
4431.039902
4428.239597
4427.625345
4423.984764
4429.319279
4428.824670
4426.936973
4434.722672
4459.222179
4420.106531
4424.320035
4473.914533
4426.071806
4424.586232
4411.783050
4389.393979
4475.398436
4420.215786
4573.661045
4410.637527
4427.854423
4429.107773
4428.008703
4426.517530
4426.279533
4428.854743
4428.172031
4432.794446
4430.319567
4430.384157
4426.724664
4426.110174
4423.702608
4425.453896
4422.334564
4427.000106
4420.309906
4436.128576
4427.073323
4462.723448
4465.798439
4439.297728
4446.547227
4483.650414
4447.048432
4438.795241
4450.635520
4449.987213
4431.467553
4271.627214
4427.365251
4428.163107
4429.733848
4428.517660
4432.144935
4429.146646
4428.901249
4425.792718
4428.820761
4424.918209
4425.866988
4426.423750
4430.290504
4427.382997
4427.004705
4421.846874
4419.578103
4415.509263
4396.386276
4406.343594
4448.661204
4413.018088
4442.461308
4441.983719
4437.928726
4421.806397
4400.052950
4433.514207
4452.116312
4434.268072
4384.507312
4400.811872