# vtk DataFile Version 2.0
mfree iwf
ASCII

DATASET UNSTRUCTURED_GRID
POINTS 8904 float
0.000000 0.000445 0.000000
0.000000 0.000450 0.000000
0.000000 0.000455 0.000000
0.000000 0.000460 0.000000
0.000001 0.000465 0.000000
0.000001 0.000470 0.000000
0.000001 0.000475 0.000000
0.000001 0.000480 0.000000
0.000001 0.000485 0.000000
0.000001 0.000490 0.000000
0.000000 0.000496 0.000000
0.000002 0.000500 0.000000
0.000198 0.000599 0.000000
0.000198 0.000609 0.000000
0.000205 0.000654 0.000000
0.000207 0.000661 0.000000
0.000207 0.000660 0.000000
0.000208 0.000665 0.000000
0.000210 0.000673 0.000000
0.000210 0.000672 0.000000
0.000212 0.000684 0.000000
0.000220 0.000710 0.000000
0.000223 0.000715 0.000000
0.000226 0.000719 0.000000
0.000229 0.000723 0.000000
0.000232 0.000727 0.000000
0.000234 0.000730 0.000000
0.000238 0.000735 0.000000
0.000240 0.000738 0.000000
0.000244 0.000743 0.000000
0.000249 0.000749 0.000000
0.000265 0.000771 0.000000
0.000005 0.000445 0.000000
0.000006 0.000450 0.000000
0.000005 0.000455 0.000000
0.000006 0.000460 0.000000
0.000006 0.000465 0.000000
0.000006 0.000470 0.000000
0.000006 0.000475 0.000000
0.000006 0.000480 0.000000
0.000005 0.000485 0.000000
0.000007 0.000490 0.000000
0.000004 0.000496 0.000000
0.000006 0.000499 0.000000
0.000204 0.000649 0.000000
0.000213 0.000659 0.000000
0.000216 0.000690 0.000000
0.000218 0.000696 0.000000
0.000219 0.000700 0.000000
0.000221 0.000704 0.000000
0.000223 0.000707 0.000000
0.000226 0.000711 0.000000
0.000230 0.000716 0.000000
0.000233 0.000720 0.000000
0.000237 0.000726 0.000000
0.000241 0.000731 0.000000
0.000246 0.000736 0.000000
0.000249 0.000743 0.000000
0.000252 0.000746 0.000000
0.000255 0.000749 0.000000
0.000258 0.000759 0.000000
0.000260 0.000762 0.000000
0.000257 0.000759 0.000000
0.000264 0.000768 0.000000
0.000010 0.000445 0.000000
0.000011 0.000450 0.000000
0.000010 0.000455 0.000000
0.000011 0.000460 0.000000
0.000010 0.000465 0.000000
0.000011 0.000470 0.000000
0.000010 0.000475 0.000000
0.000011 0.000480 0.000000
0.000010 0.000486 0.000000
0.000012 0.000490 0.000000
0.000009 0.000497 0.000000
0.000011 0.000498 0.000000
0.000208 0.000649 0.000000
0.000215 0.000660 0.000000
0.000216 0.000676 0.000000
0.000216 0.000682 0.000000
0.000216 0.000687 0.000000
0.000218 0.000692 0.000000
0.000223 0.000689 0.000000
0.000226 0.000699 0.000000
0.000227 0.000704 0.000000
0.000230 0.000711 0.000000
0.000234 0.000713 0.000000
0.000236 0.000721 0.000000
0.000241 0.000721 0.000000
0.000246 0.000726 0.000000
0.000245 0.000732 0.000000
0.000250 0.000739 0.000000
0.000258 0.000752 0.000000
0.000259 0.000755 0.000000
0.000264 0.000763 0.000000
0.000269 0.000766 0.000000
0.000015 0.000445 0.000000
0.000016 0.000450 0.000000
0.000015 0.000455 0.000000
0.000016 0.000459 0.000000
0.000015 0.000466 0.000000
0.000017 0.000470 0.000000
0.000014 0.000475 0.000000
0.000017 0.000480 0.000000
0.000015 0.000485 0.000000
0.000017 0.000489 0.000000
0.000015 0.000495 0.000000
0.000017 0.000498 0.000000
0.000026 0.000500 0.000000
0.000215 0.000665 0.000000
0.000217 0.000678 0.000000
0.000221 0.000679 0.000000
0.000225 0.000693 0.000000
0.000221 0.000697 0.000000
0.000233 0.000700 0.000000
0.000231 0.000705 0.000000
0.000238 0.000709 0.000000
0.000237 0.000716 0.000000
0.000246 0.000721 0.000000
0.000242 0.000726 0.000000
0.000250 0.000732 0.000000
0.000253 0.000736 0.000000
0.000256 0.000740 0.000000
0.000256 0.000743 0.000000
0.000260 0.000747 0.000000
0.000265 0.000753 0.000000
0.000266 0.000758 0.000000
0.000272 0.000763 0.000000
0.000020 0.000445 0.000000
0.000021 0.000450 0.000000
0.000020 0.000456 0.000000
0.000022 0.000461 0.000000
0.000019 0.000465 0.000000
0.000022 0.000468 0.000000
0.000020 0.000475 0.000000
0.000022 0.000479 0.000000
0.000020 0.000486 0.000000
0.000022 0.000491 0.000000
0.000021 0.000497 0.000000
0.000022 0.000499 0.000000
0.000040 0.000500 0.000000
0.000222 0.000664 0.000000
0.000221 0.000671 0.000000
0.000224 0.000676 0.000000
0.000221 0.000686 0.000000
0.000229 0.000688 0.000000
0.000229 0.000695 0.000000
0.000235 0.000707 0.000000
0.000237 0.000701 0.000000
0.000242 0.000712 0.000000
0.000248 0.000713 0.000000
0.000254 0.000721 0.000000
0.000251 0.000727 0.000000
0.000256 0.000731 0.000000
0.000259 0.000736 0.000000
0.000265 0.000743 0.000000
0.000265 0.000748 0.000000
0.000270 0.000753 0.000000
0.000270 0.000758 0.000000
0.000275 0.000761 0.000000
0.000025 0.000445 0.000000
0.000026 0.000450 0.000000
0.000026 0.000455 0.000000
0.000025 0.000458 0.000000
0.000025 0.000466 0.000000
0.000026 0.000471 0.000000
0.000024 0.000476 0.000000
0.000027 0.000480 0.000000
0.000024 0.000485 0.000000
0.000026 0.000489 0.000000
0.000027 0.000493 0.000000
0.000028 0.000500 0.000000
0.000200 0.000626 0.000000
0.000218 0.000667 0.000000
0.000216 0.000671 0.000000
0.000226 0.000682 0.000000
0.000230 0.000684 0.000000
0.000232 0.000692 0.000000
0.000242 0.000693 0.000000
0.000236 0.000695 0.000000
0.000242 0.000705 0.000000
0.000244 0.000709 0.000000
0.000244 0.000717 0.000000
0.000250 0.000718 0.000000
0.000253 0.000724 0.000000
0.000260 0.000732 0.000000
0.000262 0.000740 0.000000
0.000266 0.000736 0.000000
0.000269 0.000749 0.000000
0.000271 0.000744 0.000000
0.000275 0.000754 0.000000
0.000279 0.000758 0.000000
0.000030 0.000445 0.000000
0.000031 0.000450 0.000000
0.000030 0.000458 0.000000
0.000033 0.000461 0.000000
0.000029 0.000465 0.000000
0.000031 0.000469 0.000000
0.000031 0.000473 0.000000
0.000030 0.000478 0.000000
0.000031 0.000486 0.000000
0.000032 0.000492 0.000000
0.000034 0.000497 0.000000
0.000031 0.000499 0.000000
0.000049 0.000500 0.000000
0.000219 0.000656 0.000000
0.000229 0.000671 0.000000
0.000228 0.000677 0.000000
0.000232 0.000681 0.000000
0.000234 0.000687 0.000000
0.000240 0.000698 0.000000
0.000244 0.000702 0.000000
0.000248 0.000700 0.000000
0.000253 0.000710 0.000000
0.000253 0.000715 0.000000
0.000258 0.000724 0.000000
0.000263 0.000723 0.000000
0.000261 0.000728 0.000000
0.000266 0.000732 0.000000
0.000268 0.000740 0.000000
0.000276 0.000744 0.000000
0.000275 0.000749 0.000000
0.000279 0.000752 0.000000
0.000283 0.000755 0.000000
0.000035 0.000445 0.000000
0.000035 0.000450 0.000000
0.000038 0.000454 0.000000
0.000034 0.000456 0.000000
0.000035 0.000465 0.000000
0.000037 0.000472 0.000000
0.000033 0.000479 0.000000
0.000040 0.000479 0.000000
0.000035 0.000484 0.000000
0.000035 0.000489 0.000000
0.000038 0.000491 0.000000
0.000036 0.000498 0.000000
0.000198 0.000592 0.000000
0.000200 0.000625 0.000000
0.000227 0.000664 0.000000
0.000233 0.000674 0.000000
0.000239 0.000685 0.000000
0.000241 0.000682 0.000000
0.000238 0.000690 0.000000
0.000245 0.000694 0.000000
0.000248 0.000706 0.000000
0.000254 0.000704 0.000000
0.000257 0.000714 0.000000
0.000262 0.000715 0.000000
0.000260 0.000719 0.000000
0.000272 0.000729 0.000000
0.000271 0.000734 0.000000
0.000275 0.000736 0.000000
0.000275 0.000740 0.000000
0.000280 0.000744 0.000000
0.000283 0.000749 0.000000
0.000287 0.000752 0.000000
0.000040 0.000445 0.000000
0.000041 0.000450 0.000000
0.000038 0.000460 0.000000
0.000042 0.000457 0.000000
0.000041 0.000465 0.000000
0.000040 0.000469 0.000000
0.000044 0.000476 0.000000
0.000038 0.000475 0.000000
0.000041 0.000487 0.000000
0.000043 0.000492 0.000000
0.000042 0.000497 0.000000
0.000045 0.000498 0.000000
0.000198 0.000529 0.000000
0.000214 0.000655 0.000000
0.000225 0.000660 0.000000
0.000239 0.000668 0.000000
0.000237 0.000680 0.000000
0.000243 0.000687 0.000000
0.000248 0.000689 0.000000
0.000249 0.000695 0.000000
0.000254 0.000699 0.000000
0.000255 0.000708 0.000000
0.000260 0.000706 0.000000
0.000265 0.000715 0.000000
0.000267 0.000722 0.000000
0.000272 0.000723 0.000000
0.000268 0.000726 0.000000
0.000276 0.000732 0.000000
0.000280 0.000737 0.000000
0.000284 0.000742 0.000000
0.000287 0.000746 0.000000
0.000290 0.000750 0.000000
0.000045 0.000445 0.000000
0.000046 0.000450 0.000000
0.000045 0.000455 0.000000
0.000046 0.000461 0.000000
0.000045 0.000465 0.000000
0.000046 0.000470 0.000000
0.000046 0.000478 0.000000
0.000041 0.000483 0.000000
0.000051 0.000485 0.000000
0.000046 0.000483 0.000000
0.000048 0.000493 0.000000
0.000051 0.000498 0.000000
0.000198 0.000536 0.000000
0.000204 0.000646 0.000000
0.000225 0.000669 0.000000
0.000238 0.000674 0.000000
0.000241 0.000676 0.000000
0.000247 0.000684 0.000000
0.000253 0.000691 0.000000
0.000256 0.000695 0.000000
0.000260 0.000701 0.000000
0.000264 0.000706 0.000000
0.000263 0.000710 0.000000
0.000270 0.000717 0.000000
0.000269 0.000711 0.000000
0.000276 0.000724 0.000000
0.000279 0.000727 0.000000
0.000281 0.000732 0.000000
0.000285 0.000735 0.000000
0.000287 0.000739 0.000000
0.000291 0.000743 0.000000
0.000294 0.000747 0.000000
0.000050 0.000445 0.000000
0.000051 0.000450 0.000000
0.000050 0.000456 0.000000
0.000051 0.000459 0.000000
0.000050 0.000465 0.000000
0.000052 0.000471 0.000000
0.000050 0.000473 0.000000
0.000051 0.000478 0.000000
0.000048 0.000488 0.000000
0.000053 0.000491 0.000000
0.000058 0.000493 0.000000
0.000054 0.000498 0.000000
0.000198 0.000566 0.000000
0.000209 0.000642 0.000000
0.000215 0.000650 0.000000
0.000235 0.000669 0.000000
0.000247 0.000675 0.000000
0.000247 0.000680 0.000000
0.000255 0.000683 0.000000
0.000252 0.000686 0.000000
0.000264 0.000694 0.000000
0.000259 0.000696 0.000000
0.000268 0.000703 0.000000
0.000273 0.000709 0.000000
0.000273 0.000715 0.000000
0.000277 0.000719 0.000000
0.000281 0.000723 0.000000
0.000284 0.000726 0.000000
0.000287 0.000731 0.000000
0.000291 0.000736 0.000000
0.000295 0.000740 0.000000
0.000298 0.000744 0.000000
0.000055 0.000445 0.000000
0.000056 0.000450 0.000000
0.000055 0.000455 0.000000
0.000056 0.000461 0.000000
0.000055 0.000464 0.000000
0.000056 0.000469 0.000000
0.000056 0.000477 0.000000
0.000059 0.000482 0.000000
0.000053 0.000483 0.000000
0.000057 0.000486 0.000000
0.000056 0.000497 0.000000
0.000060 0.000497 0.000000
0.000198 0.000576 0.000000
0.000203 0.000643 0.000000
0.000212 0.000649 0.000000
[...]
POINT_DATA 8904
SCALARS density float 1
LOOKUP_TABLE default
4427.219172
4429.676882
4426.319636
4422.505826
4422.093773
4427.812550
4439.842369
4434.577825
4443.245830
4425.914587
4433.597220
4397.150104
4479.020695
4440.524443
4427.623382
4423.393206
4431.667598
4427.221605
4436.151035
4447.815857
4434.833826
4426.372221
4410.691709
4441.095054
4428.529043
4424.756857
4444.708025
4434.737821
4426.095921
4441.315449
4445.904598
4449.276044
4426.806609
4429.024968
4423.295002
4433.911185
4438.305482
4416.811536
4420.711992
4420.663350
4401.396823
4417.756216
4443.784304
4399.619541
4416.815699
4434.747667
4394.073384
4427.535092
4410.540562
4407.519238
4423.979136
4433.247502
4425.358231
4416.228298
4410.276978
4407.984663
4436.197157
4396.251551
4407.859454
4408.047029
4418.599647
4407.976026
4421.328314
4436.819357
4422.495375
4426.002209
4438.683685
4411.103802
4436.614970
4422.999938
4450.875686
4392.332438
4484.376305
4364.859556
4476.775068
4408.615518
4421.029963
4454.718656
4432.360366
4394.663035
4407.584796
4393.824096
4466.071411
4384.436378
4455.829914
4410.706001
4416.344451
4428.422599
4405.278490
4417.865727
4431.485932
4398.222873
4443.528174
4438.787389
4437.381160
4403.992199
4432.391767
4444.877123
4444.634565
4440.911154
4436.192535
4403.139771
4456.796617
4374.844577
4474.028029
4375.377202
4520.847726
4395.625624
4437.927704
4381.667045
4454.940489
4433.916015
4407.475803
4462.722274
4415.964362
4442.113665
4426.735660
4426.821303
4412.299565
4454.708430
4419.592412
4460.519287
4462.861325
4468.137275
4437.391224
4379.876642
4498.835680
4446.111636
4434.858113
4425.804095
4432.185021
4413.161912
4453.069161
4438.247174
4445.736735
4437.846805
4470.029056
4382.266429
4472.648411
4440.382188
4420.660579
4389.653454
4461.414605
4386.416553
4515.115326
4385.726514
4438.847616
4453.902700
4427.589219
4430.474095
4421.236693
4423.889711
4445.895526
4401.495707
4400.912294
4448.958740
4425.298946
4444.786966
4335.507765
4452.036736
4426.947174
4441.234820
4437.273099
4447.912788
4451.713592
4404.561429
4451.755773
4383.311414
4422.814179
4459.664944
4406.724802
4427.794871
4429.358341
4485.179383
4356.441138
4339.116420
4471.212480
4454.726992
4447.910292
4438.689790
4435.484970
4448.295242
4438.235328
4444.096099
4450.173328
4457.428779
4357.834755
4481.333813
4462.041423
4391.793235
4441.345505
4424.967139
4440.345674
4426.849014
4405.949139
4441.010329
4417.165672
4448.690220
4424.543631
4454.647373
4452.374650
4397.918046
4466.075849
4424.077044
4423.500582
4423.586127
4438.888239
4486.090425
4439.100566
4415.651648
4424.159643
4437.505072
4422.320477
4433.346236
4441.265836
4408.117215
4430.336477
4443.385063
4394.552596
4440.534305
4468.631968
4399.902644
4408.308945
4435.718371
4437.144810
4419.840664
4424.675733
4425.556028
4427.542255
4419.100543
4427.143180
4425.474873
4409.091566
4435.045177
4407.460991
4449.078018
4445.324340
4429.188714
4452.152159
4381.796375
4470.157248
4429.536554
4394.376439
4447.638117
4419.554098
4438.099427
4394.658057
4463.506003
4417.715899
4415.261297
4422.047643
4436.663767
4426.253217
4448.116010
4417.595791
4426.508935
4422.956715
4434.209798
4435.879291
4400.941748
4435.145971
4428.804498
4432.715935
4426.907732
4455.365973
4433.131665
4436.911310
4428.584680
4682.276513
4394.257325
4420.682184
4432.462717
4383.367100
4432.679345
4435.222678
4425.860853
4438.863292
4435.578271
4445.329934
4445.176437
4400.870319
4435.322656
4445.999613
4455.738888
4394.024426
4424.346672
4416.016189
4435.521775
4433.213677
4415.127196
4425.283566
4423.246274
4448.672455
4416.886146
4438.039618
4436.397858
4470.971009
4390.704690
4468.041992
4446.821450
4444.773227
4421.746965
4418.065865
4473.620490
4448.609320
4426.111994
4409.477217
4457.139108
4404.660558
4432.861380
4426.103518
4426.459020
4384.944139
4415.806034
4428.551264
4422.435634
4443.556515
4451.348499
4423.687803
4419.436970
4434.413416
4421.595633
4443.596399
4437.960646
4392.984665
4440.353092
4448.481914
4382.377572
4387.190292
4395.221143
4550.378241
4410.098997
4566.866040
4466.268336
4445.798158
4454.048661
4440.507024
4428.259015
4443.635198
4457.216965
4449.139883
4448.539417
4430.226699
4443.118683
4466.316929
4438.072359
4451.047540
4450.460190
4427.774993
4419.996473
4426.052543
4427.866057
4429.642144
4424.301668
4411.315254
4420.140734
4447.014351
4414.574735
4415.669391
4426.919721
4477.222882
4381.945501
4416.482712
4388.456496
4587.515932
4421.792450
4451.406622
4435.210691
4440.950731
4427.936004
4455.062626
4430.804413
4447.480826
4432.372585
4472.620840
4400.214949
4431.387753
4422.209097
4419.039374
4439.007274
4438.488895
4426.410589
4429.109024
4419.789084
4428.613184
4402.608986
4436.883503
4404.342839
4424.954555
4417.848289
4444.962587
4419.644314
4449.815890
4398.496591
4450.398705
4440.036616
4416.129118
4536.762179
4466.348680
4387.967451
4378.260783
4437.848608
4414.745185
4459.626071
4415.020908
4439.342719
4417.290240
4454.917684
4410.502708
4450.087533
4441.738226
4449.292331
4415.947737
4431.874832
4420.706993
4424.834130
4435.871244
4424.291232
4434.494730
4423.836630
4441.508386
4422.463615
4430.395269
4424.852283
4458.156613
4390.197736
4432.586854
4436.906643
4522.824162
4435.544872
4419.721269
4423.059468
4484.661621
4433.547477
4447.628200
4432.653620
4421.471842
4444.014833
4440.080584
4448.265946
4406.972340
4412.511792
4416.574061
4433.742551
4441.443922
4422.933183
4428.318841
4423.356676
4425.990244
4430.790077
4420.557928
4423.550796
4423.149803
4412.294470
4446.012746
4406.191644
4424.131028
4433.074750
4442.362492
4450.216218
4600.231748
4410.340540
4412.129228
4450.054421
4468.426703
4401.558140
4448.887895
4463.123902
4436.203779
4413.209942
4415.769496
4424.499371
4412.582761
4464.580928
4417.277598
4428.535489
4438.731143
4409.401572
4432.875819
4421.259191
4440.079990
4422.336755
4419.319165
4430.556976
4427.015215
4426.858892
4421.463966
4440.988675
4435.460787
4425.378098
4414.282347
4451.184257
4428.621790
4415.776231
4424.859059
4369.355915
4443.801773
4480.261665
4433.918775
4442.467445
4399.345006
4470.530208
4435.931447
4436.110453
4456.339637
4450.099637
4437.455880
4429.748119
4421.357790
4439.228297
4417.735912
4422.586697
4423.854329
4418.455880
4429.587348
4418.742607
4423.570546
4433.399279
4416.124940
4418.215768
4399.586633
4491.338969
4356.932342
4433.002307
4435.900633
4389.714049
4495.894268
4423.379040
4440.840813
4395.349707
4403.019333
4408.398660
4442.057851
4467.830569
4425.000080
4444.799885
4452.618872
4448.395590
4431.245208
4443.434700
4419.990261
4441.720126
4414.752275
4426.591366
4444.551866
4420.236273
4429.299830
4436.002701
4431.286793
4405.595375
4433.366287
4441.399385
4430.501502
4459.258439
4456.208523
4471.540432
4560.794054
4582.767589
4495.375378
4435.296830
4429.388989
4403.062909
4449.328098
4448.625994
4426.340481
4423.143119
4450.214192
4410.984623
4410.599518
4437.339284
4434.472426
4416.111443
4422.699883
4433.145192
4424.415856
4427.573771
4421.329094
4423.935916
4441.636888
4416.276031
4410.871904
4441.148643
4418.394511
4457.780247
4446.243780
4406.201079
4404.213478
4423.381796
4408.610699
4414.615990
4376.602838
4409.617670
4423.615832
4412.030664
4452.353011
4447.444309
4425.714387
4421.047028
4452.577100
4429.719824
4475.112501
4431.494102
4457.887600
4433.877939
4442.112913
4422.803549
4420.472865
4419.613437
4440.464914
4428.743758
4429.396017
4445.331516
4436.949840
4406.849485
4422.630178
4421.452834
4408.624544
4439.377934
4440.089439
4431.093315
4400.395250
4393.535823
4514.467661
4495.887102
4435.279911
4442.224280
4422.296882
4368.598012
4489.736174
4410.631738
4436.849827
4399.993909
4434.735638
4433.390842
4438.443486
4410.755072
4423.512535
4431.714430
4423.594677
4424.420354
4413.840660
4413.446322
4431.621672
4410.777660
4432.020643
4412.019183
4415.840350
4374.097549
4436.884160
4489.150875
4384.015710
4583.622734
4383.495462
4449.984071
4421.824299
4513.017203
4432.032948
4447.557227
4396.268330
4433.770156
4443.809629
4465.986608
4426.555284
4442.377859
4431.917057
4449.086081
4433.913642
4465.831790
4449.436717
4418.751621
4430.445049
4416.392325
4450.631207
4438.079940
4418.812218
4421.028148
4439.324021
4412.725738
4445.636465
4426.291383
4451.622540
4383.927876
4421.507705
4432.325895
4500.006032
4407.760265
4471.812812
4420.934645
4396.064157
4457.936712
4453.718108
4461.571677
4385.196859
4353.878533
4421.746244
4462.130194
4415.809396
4425.039587
4442.431730
4423.792869
4427.960439
4414.431307
4432.855832
4425.852929
4416.949182
4431.236794
4435.327230
4431.116009
4418.314838
4397.687049
4447.896538
4396.095153
4455.575097
4369.356882
4354.936473
4502.509270
4420.930495
4445.017486
4462.869657
4435.960016
4466.011453
4422.953231
4408.078529
4398.925158
4418.793931
4420.232259
4414.538144
4457.634119
4466.328941
4409.477704
4444.063865
4437.307882
4464.909532
4426.059995
4413.756979
4426.533683
4444.437386
4439.496693
4407.700228
4421.983396
4427.628321
4432.167554
4440.784597
4419.780304
4471.714994
4454.863883
4445.256680
4425.707759
4463.818699
4446.835707
4415.421572
4413.116223
4439.032187
4467.745713
4440.175935
4393.481668
4444.370123
4443.766533
4381.530210
4380.743212
4456.479674
4464.465542
4438.686851
4435.195726
4423.435212
4419.244257
4436.516222
4422.561275
4413.813317
4427.683765
4427.105654
4427.730501
4428.411440
4428.548186
4429.050044
4429.197115
4429.669154
4429.796691
4430.184646
4430.168684
4430.344858
4430.005891
4429.557566
4417.957181
4426.133461
4426.059737
4427.083693
4427.701753
4428.079871
4428.740540
4428.885735
4429.398779
4429.391307
4429.930750
4430.036777
4430.065817
4430.254333
4431.444564
4421.245302
4426.164703
4425.719288
4426.719534
4427.551278
4427.705259
4428.381713
4428.416605
4429.122392
4429.166047
4429.647567
4429.393811
4429.515037
4430.374615
4429.276423
4422.867596
4426.677179
4426.245629
4427.084013
4427.458653
4427.934904
4428.361578
4428.617596
4428.895620
4428.939012
4429.173024
4429.350892
4429.671414
4429.253344
4430.236281
4424.732398
4426.987025
4426.729378
4427.068052
4427.557429
4427.754105
4428.141735
4428.255483
4428.726933
4428.765296
4429.269100
4428.681187
4429.546850
4428.096378
4430.015087
4425.398142
4427.384536
4427.188814
4427.264658
4427.967964
4427.723265
4428.591406
4428.176929
4429.023389
4428.344891
4429.131693
4428.640369
4429.305081
4427.759527
4428.831485
4426.094906
4427.666206
4427.408301
4427.489874
4427.839762
4427.799581
4428.262286
4428.128070
4428.648170
4428.580904
4429.037704
4428.553560
4428.571404
4427.817386
4428.725412
4426.621389
4427.976353
4427.679540
4427.750470
4428.070469
4428.132733
4428.327033
4428.507027
4428.615954
4428.635255
4428.704096
4428.733570
4429.045465
4427.739145
4427.795161
4426.857893
4428.182647
4427.753960
4427.908266
4428.029603
4427.940009
4428.356056
4428.157715
4428.586151
4428.572586
4429.062529
4428.824302
4429.100622
4428.806601
4429.096495
4427.375709
4428.385589
4427.936279
4428.128057
4428.159476
4428.377510
4428.310891
4428.559805
4428.611911
4428.645897
4428.797212
4429.122230
4429.700297
4429.242117
4430.244306
4427.340571
4428.468652
4428.010146
4428.168926
4428.092226
4428.164616
4428.213237
4428.324555
4428.374384
4428.650595
4428.992882
4428.977406
4429.870918
4429.886012
4430.826400
4427.689100
4428.596590
4428.122397
4428.229570
4428.400921
4428.229347
4428.519682
4428.279853
4428.713729
4428.403402
4428.758374
4428.917065
4429.478221
4429.943143
4430.904263
4427.943605
4428.454821
4428.402837
4428.156149
4428.235129
4428.187124
4428.193513
4428.270943
4428.249608
4428.455719
4428.573141
4428.601352
4429.110072
4429.281871
4430.220315
4444.101187
4437.201168
4417.727808
4423.473775
4442.361088
4446.170887
4440.849648
4455.134438
4407.993439
4437.968173
4431.456214
4480.482216
4436.614074
4426.986817
4425.483158
4410.205720
4428.068523
4428.609926
4428.352513
4428.244003
4428.471465
4428.209352
4428.442039
4428.214585
4428.446694
4428.094649
4428.327545
4428.143769
4428.540933
4428.188614
4429.602658
4424.064368
4443.009329
4449.105096
4443.911222
4464.633958
4434.865212
4411.524517
4449.050612
4452.851666
4435.736664
4385.965550
4448.364588
4446.839167
4467.491103
4409.579575
4408.433451
4427.909990
4428.521117
4428.458629
4428.119262
4428.409444
4427.912411
4428.440885
4427.702968
4428.366133
4427.635564
4428.467819
4427.382939
4428.304861
4427.245408
4427.960161
4423.309420
4431.025097
4421.932253
4439.031072
4407.428037
4448.451547
4410.618072
4469.793464
4442.913083
4456.349160
4417.522356
4395.638479
4434.441168
4452.848892
4382.611115
4436.813652
4428.095906
4428.551238
4428.555448
4428.082761
4428.587033
4428.084081
4428.376973
4428.033186
4428.242888
4427.777764
4427.918337
4427.438423
4427.408653
4425.689864
4427.751933
4432.292233
4442.523308
4413.200918
4372.733924
4497.246636
4458.650032
4461.563261
4434.389317
4421.662642
4429.897150
4411.418410
4455.306600
4389.661690
4435.538829
4434.280669
4408.387474
4427.917052
4428.652997
4428.329542
4428.337992
4428.235515
4428.006986
4428.204907
4427.765870
4427.928715
4427.749480
4427.542043
4426.696065
4426.930149
4424.986386
4424.152553
4445.054776
4428.817287
4450.744271
4444.022461
4495.326354
4427.059327
4476.818791
4486.565067
4456.999259
4453.063091
4410.824402
4476.954327
4435.462647
4360.405469
4421.988139
4409.685087
4427.935944
4428.755000
4428.326898
4428.366380
4428.222861
4428.359715
4428.029031
4428.118056
4428.081257
4427.384395
4427.775493
4426.541233
4426.873062
4423.999472
4421.265687
4408.907799
4407.085616
4443.647842
4455.282079
4464.601274
4385.764656
4557.364840
4502.221258
4419.751189
4422.413976
4459.741730
4433.639364
4403.901052
4406.120482
4423.824554
4424.712486
4428.134285
4428.628195
4428.419430
4428.329759
4428.223951
4428.053870
4428.083063
4428.018671
4427.571735
4428.274352
4426.677445
4427.682809
4425.470791
4426.053113
4424.229266
4459.169365
4409.709281
4439.526443
4418.845551
4434.799467
4408.300184
4463.386693
4487.521255
4469.913038
4426.878527
4454.936653
4468.464715
4428.950397
4465.936187
4468.168081
4403.260425
4427.936068
4428.785861
4428.293001
4428.462770
4428.142868
4428.407830
4428.086897
4428.122094
4428.138418
4427.521672
4428.129166
4427.261901
4427.719218
4427.852092
4424.702751
4447.684348
4449.114980
4434.034179
4456.450126
4478.338064
4463.747182
4485.673283
4464.317418
4416.140815
4464.138669
4440.292974
4474.882274
4435.558031
4451.642534
4409.680159
4412.643552
4427.865164
4428.595973
4428.446919
4428.175858
4428.423947
4428.008145
4428.347169
4427.915841
4428.255053
4427.886622
4428.159924
4428.041991
4428.675994
4428.678323
4430.515220
4432.109737
4443.852672
4434.955528
4421.852006
4460.421727
4519.491798
4457.630665
4470.343546
4460.179555
4485.879102
4397.745759
4380.906708
4398.061620
4440.902318
4390.139736
4416.671898
4427.877653
4428.586523
4428.558009
4428.242581
4428.538260
4428.160715
4428.476652
4428.117441
4428.141782
4428.125001
4428.140839
4428.166543
4429.290412
4429.085249
4429.997059
4456.539123
4439.163602
4447.200953
4450.942886
4470.801461
4479.869226
4439.273853
4463.844569
4479.641680
4443.001351
4401.535648
4452.903472
4440.859913
4459.123098
4364.082570
4444.980990
4427.847772
4428.747598
4428.333523
4428.505171
4428.175838
4428.431524
4428.097706
4428.129934
4428.274626
4427.774297
4428.452337
4428.237072
4428.347422
4429.507763
4427.430194
4433.729938
4452.326544
4442.313449
4457.154613
4454.189593
4450.653338
4437.227243
4479.192182
4458.966829
4456.511509
4443.357782
4447.531277
4451.275126
4483.348953
4411.043666
4403.201136
4427.787890
4428.750741
4428.382849
4428.408847
4428.463025
4428.203911
4428.404709
4428.172141
4427.952611
4428.334866
4427.955370
4428.241259
4428.063826
4428.108475
4428.069632
4435.837923
4453.476656
4409.244372
4420.436483
4436.217652
4463.729710
4441.156800
4465.291912
4440.458153
4478.107062
4486.536055
4420.254683
4424.312227
4405.395373
4275.485899
4436.665892
4427.844543
4428.624287
4428.632171
4428.324701
4428.374837
4428.302950
4428.161815
4428.063358
4428.283956
4427.867671
4428.174282
4427.907536
4427.926461
4427.624773
4427.193529
4426.601091
4433.716621
4437.489948
4447.668673
4436.598583
4458.034566
4460.230700
4438.075057
4468.393445
4462.342836
4458.146214
4426.841653
4450.619311
4367.925505
4553.508241
4444.436225
4427.688204
4428.888546
4428.358257
4428.608162
4428.380430
4428.327776
4428.459043
4428.197406
4428.198150
4427.988125
4428.022530
4427.253451
4427.720296
4426.734855
4426.294240
4432.935229
4433.136220
4433.867289
4423.100188
4427.306592
4461.290353
4447.859419
4436.670398
4438.136491
4465.566394
4418.327256
4442.164334
4429.027652
4469.525096
4403.155102
4400.121257
4427.735841
4428.917992
4428.457934
4428.487243
4428.467913
4428.500465
4428.206077
4428.370279
4427.964692
4428.072841
4427.301833
4427.847136
4426.579464
4426.835183
4426.604063
4439.394059
4426.984407
4412.284099
4418.117080
4433.486381
4420.525762
4424.914002
4447.185792
4404.723400
4455.868187
4461.727294
4442.073971
4440.668150
4457.129756
4414.672267
4423.177191
4427.695401
4428.949256
4428.512846
4428.952011
4428.278203
4428.794437
4428.247516
4428.421993
4428.041884
4427.907064
4427.795222
4427.158597
4426.971618
4427.403252
4426.253944
4435.056180
4418.707353
4425.309506
4438.671609
4429.072820
4438.857279
4447.170799
4462.021137
4462.787965
4451.226238
4425.052834
4434.748424
4436.869557
4425.385094
4471.042721
4418.126696
4427.884140
4429.063147
4428.635305
4428.612946
4428.791604
4428.497367
4428.532470
4428.412075
4428.090881
4428.267296
4427.468135
4427.966490
4427.071393
4426.679291
4429.690158
4416.578559
4438.674145
4438.830932
4445.847804
4455.241018
4452.701219
4428.283944
4416.483375
4435.927095
4449.973839
4425.438404
4412.540498
4453.273714
4454.098526
4415.750565
4451.505228
4427.889305
4428.854293
4429.057934
4428.670679
4428.983759
4428.577854
4428.834451
4428.302770
4428.556900
4427.835282
4427.995117
4427.325759
4426.990861
4426.624163
4427.982341
4425.116019
4439.294421
4433.056329
4421.658980
4418.016248
4404.978063
4444.009653
4420.989787
4457.757230
4420.210232
4455.130012
4437.803212
4457.805241
4397.195638
4424.456160
4451.513671
4428.115217
4429.130542
4428.976425
4428.975053
4428.885133
4428.805469
4428.767091
4428.431339
4428.506081
4427.925583
4428.402136
4427.191998
4428.178592
4426.462596
4425.816729
4403.103834
4431.871182
4407.582970
4419.705466
4420.843687
4406.684336
4420.993333
4410.392243
4407.571316
4444.777063
4449.822748
4426.524055
4424.716901
4455.127090
4468.983864
4460.186447
4428.148990
4429.366450
4429.016011
4429.091779
4429.152701
4428.942388
4428.932709
4428.831735
4428.602241
4428.694071
4427.747288
4428.527703
4426.807381
4426.241160
4429.297062
4436.284405
4428.053956
4406.283361
4428.643086
4411.040467
4417.707248
4441.465941
4450.742590
4421.476063
4446.452416
4441.867372
4452.672435
4455.275151
4455.789388
4462.237424
4456.695687
4428.447657
4429.317044
4429.346547
4429.203578
4429.227554
4429.185853
4429.183291
4429.029401
4428.935454
4428.618727
4428.930577
4427.557846
4428.381395
4428.083547
4427.021961
4435.296398
4410.671632
4446.169265
4415.460571
4422.174731
4424.564822
4451.501777
4406.625438
4399.818174
4448.520162
4457.046162
4473.060070
4471.022933
4449.412852
4468.001977
4457.977203
4428.812108
4429.584150
4429.431474
4429.559458
4429.477602
4429.504154
4429.374368
4429.226750
4429.283538
4428.861602
4428.519799
4428.839979
4428.148997
4427.462270
4429.808156
4430.448130
4425.155909
4438.211227
4392.936144
4427.396461
4436.568887
4428.601960
4424.236084
4415.549202
4456.618455
4442.104456
4437.924778
4437.070102
4458.051212
4458.574053
4453.793921
4429.102729
4429.820619
4429.565110
4429.772914
4429.561354
4429.761379
4429.482354
4429.775450
4429.056947
4429.823913
4428.926907
4429.028554
4428.346304
4428.419290
4429.482678
4431.680781
4406.238735
4435.253108
4444.775396
4433.589589
4427.773385
4424.207844
4419.100237
4432.420292
4419.889784
4447.704004
4436.198594
4440.813520
4455.281710
4435.481218
4451.517649