# vtk DataFile Version 2.0
mfree iwf
ASCII

DATASET UNSTRUCTURED_GRID
POINTS 11907 float
-0.000000 0.000445 0.000000
-0.000000 0.000450 0.000000
-0.000000 0.000455 0.000000
-0.000000 0.000460 0.000000
-0.000000 0.000465 0.000000
-0.000000 0.000470 0.000000
-0.000000 0.000475 0.000000
-0.000000 0.000480 0.000000
-0.000000 0.000485 0.000000
0.000000 0.000490 0.000000
-0.000001 0.000496 0.000000
0.000002 0.000500 0.000000
0.001184 0.001045 0.000000
0.001193 0.001043 0.000000
0.001237 0.001025 0.000000
0.001242 0.001022 0.000000
0.001242 0.001022 0.000000
0.001248 0.001020 0.000000
0.001255 0.001016 0.000000
0.001250 0.001018 0.000000
0.001263 0.001012 0.000000
0.001287 0.000998 0.000000
0.001292 0.000993 0.000000
0.001295 0.000990 0.000000
0.001298 0.000986 0.000000
0.001301 0.000982 0.000000
0.001304 0.000979 0.000000
0.001307 0.000974 0.000000
0.001310 0.000971 0.000000
0.001314 0.000966 0.000000
0.001318 0.000962 0.000000
0.001336 0.000949 0.000000
0.000005 0.000445 0.000000
0.000005 0.000450 0.000000
0.000005 0.000455 0.000000
0.000005 0.000460 0.000000
0.000005 0.000465 0.000000
0.000005 0.000470 0.000000
0.000005 0.000475 0.000000
0.000005 0.000480 0.000000
0.000005 0.000485 0.000000
0.000006 0.000489 0.000000
0.000003 0.000496 0.000000
0.000006 0.000498 0.000000
0.001232 0.001026 0.000000
0.001236 0.001017 0.000000
0.001269 0.001006 0.000000
0.001275 0.001003 0.000000
0.001279 0.001000 0.000000
0.001282 0.000998 0.000000
0.001284 0.000996 0.000000
0.001286 0.000992 0.000000
0.001289 0.000989 0.000000
0.001293 0.000984 0.000000
0.001299 0.000978 0.000000
0.001302 0.000974 0.000000
0.001305 0.000968 0.000000
0.001312 0.000962 0.000000
0.001314 0.000958 0.000000
0.001318 0.000955 0.000000
0.001328 0.000950 0.000000
0.001330 0.000949 0.000000
0.001326 0.000952 0.000000
0.001334 0.000947 0.000000
0.000010 0.000445 0.000000
0.000010 0.000450 0.000000
0.000010 0.000455 0.000000
0.000010 0.000460 0.000000
0.000010 0.000465 0.000000
0.000010 0.000469 0.000000
0.000010 0.000475 0.000000
0.000011 0.000479 0.000000
0.000009 0.000486 0.000000
0.000012 0.000489 0.000000
0.000008 0.000497 0.000000
0.000011 0.000498 0.000000
0.001231 0.001023 0.000000
0.001239 0.001015 0.000000
0.001255 0.001011 0.000000
0.001262 0.001008 0.000000
0.001266 0.001006 0.000000
0.001271 0.001004 0.000000
0.001261 0.001002 0.000000
0.001269 0.000998 0.000000
0.001274 0.000995 0.000000
0.001279 0.000992 0.000000
0.001287 0.000985 0.000000
0.001292 0.000981 0.000000
0.001291 0.000974 0.000000
0.001296 0.000972 0.000000
0.001300 0.000970 0.000000
0.001309 0.000964 0.000000
0.001320 0.000953 0.000000
0.001322 0.000951 0.000000
0.001327 0.000945 0.000000
0.001328 0.000939 0.000000
0.000014 0.000445 0.000000
0.000016 0.000450 0.000000
0.000014 0.000456 0.000000
0.000017 0.000460 0.000000
0.000014 0.000469 0.000000
0.000015 0.000465 0.000000
0.000014 0.000476 0.000000
0.000017 0.000480 0.000000
0.000014 0.000484 0.000000
0.000016 0.000489 0.000000
0.000014 0.000495 0.000000
0.000016 0.000497 0.000000
0.000025 0.000500 0.000000
0.001243 0.001015 0.000000
0.001257 0.001009 0.000000
0.001251 0.001006 0.000000
0.001265 0.001000 0.000000
0.001274 0.001001 0.000000
0.001275 0.000992 0.000000
0.001282 0.000987 0.000000
0.001278 0.000986 0.000000
0.001284 0.000982 0.000000
0.001291 0.000968 0.000000
0.001295 0.000978 0.000000
0.001300 0.000964 0.000000
0.001305 0.000964 0.000000
0.001304 0.000959 0.000000
0.001309 0.000957 0.000000
0.001313 0.000952 0.000000
0.001316 0.000949 0.000000
0.001320 0.000945 0.000000
0.001326 0.000937 0.000000
0.000019 0.000445 0.000000
0.000021 0.000450 0.000000
0.000018 0.000455 0.000000
0.000022 0.000459 0.000000
0.000019 0.000469 0.000000
0.000024 0.000468 0.000000
0.000018 0.000474 0.000000
0.000022 0.000479 0.000000
0.000019 0.000486 0.000000
0.000021 0.000491 0.000000
0.000020 0.000497 0.000000
0.000022 0.000499 0.000000
0.000039 0.000500 0.000000
0.001237 0.001004 0.000000
0.001245 0.001009 0.000000
0.001253 0.001002 0.000000
0.001258 0.001005 0.000000
0.001268 0.000994 0.000000
0.001265 0.000989 0.000000
0.001278 0.000981 0.000000
0.001269 0.000987 0.000000
0.001281 0.000977 0.000000
0.001280 0.000968 0.000000
0.001285 0.000963 0.000000
0.001291 0.000962 0.000000
0.001299 0.000957 0.000000
0.001304 0.000949 0.000000
0.001309 0.000948 0.000000
0.001312 0.000946 0.000000
0.001320 0.000940 0.000000
0.001323 0.000941 0.000000
0.001322 0.000934 0.000000
0.000024 0.000445 0.000000
0.000026 0.000450 0.000000
0.000024 0.000455 0.000000
0.000026 0.000461 0.000000
0.000021 0.000465 0.000000
0.000025 0.000472 0.000000
0.000023 0.000476 0.000000
0.000027 0.000481 0.000000
0.000023 0.000485 0.000000
0.000026 0.000488 0.000000
0.000026 0.000492 0.000000
0.000027 0.000500 0.000000
0.001213 0.001036 0.000000
0.001245 0.001012 0.000000
0.001250 0.001011 0.000000
0.001262 0.000995 0.000000
0.001258 0.000998 0.000000
0.001274 0.000988 0.000000
0.001272 0.000982 0.000000
0.001262 0.000990 0.000000
0.001268 0.000978 0.000000
0.001287 0.000978 0.000000
0.001285 0.000971 0.000000
0.001286 0.000975 0.000000
0.001296 0.000967 0.000000
0.001296 0.000961 0.000000
0.001307 0.000952 0.000000
0.001303 0.000954 0.000000
0.001315 0.000941 0.000000
0.001307 0.000942 0.000000
0.001317 0.000936 0.000000
0.001318 0.000930 0.000000
0.000030 0.000445 0.000000
0.000031 0.000450 0.000000
0.000029 0.000455 0.000000
0.000031 0.000460 0.000000
0.000031 0.000464 0.000000
0.000028 0.000468 0.000000
0.000031 0.000472 0.000000
0.000030 0.000477 0.000000
0.000030 0.000486 0.000000
0.000031 0.000492 0.000000
0.000033 0.000497 0.000000
0.000030 0.000499 0.000000
0.000048 0.000500 0.000000
0.001234 0.001011 0.000000
0.001246 0.000999 0.000000
0.001254 0.000996 0.000000
0.001251 0.000997 0.000000
0.001257 0.000992 0.000000
0.001263 0.000981 0.000000
0.001275 0.000970 0.000000
0.001275 0.000978 0.000000
0.001279 0.000973 0.000000
0.001288 0.000967 0.000000
0.001289 0.000953 0.000000
0.001293 0.000958 0.000000
0.001295 0.000954 0.000000
0.001298 0.000943 0.000000
0.001299 0.000950 0.000000
0.001304 0.000939 0.000000
0.001311 0.000938 0.000000
0.001314 0.000933 0.000000
0.001315 0.000927 0.000000
0.000035 0.000445 0.000000
0.000035 0.000450 0.000000
0.000034 0.000456 0.000000
0.000038 0.000454 0.000000
0.000035 0.000467 0.000000
0.000036 0.000472 0.000000
0.000032 0.000479 0.000000
0.000041 0.000479 0.000000
0.000034 0.000483 0.000000
0.000034 0.000488 0.000000
0.000037 0.000491 0.000000
0.000036 0.000498 0.000000
0.001172 0.001045 0.000000
0.001209 0.001038 0.000000
0.001242 0.001004 0.000000
0.001247 0.000993 0.000000
0.001259 0.000985 0.000000
0.001250 0.000984 0.000000
0.001267 0.000982 0.000000
0.001265 0.000976 0.000000
0.001273 0.000974 0.000000
0.001263 0.000967 0.000000
0.001271 0.000960 0.000000
0.001285 0.000955 0.000000
0.001286 0.000959 0.000000
0.001290 0.000950 0.000000
0.001302 0.000944 0.000000
0.001293 0.000933 0.000000
0.001305 0.000932 0.000000
0.001308 0.000935 0.000000
0.001311 0.000930 0.000000
0.001311 0.000924 0.000000
0.000040 0.000445 0.000000
0.000041 0.000450 0.000000
0.000036 0.000461 0.000000
0.000040 0.000458 0.000000
0.000041 0.000463 0.000000
0.000039 0.000468 0.000000
0.000041 0.000473 0.000000
0.000037 0.000477 0.000000
0.000041 0.000488 0.000000
0.000042 0.000491 0.000000
0.000041 0.000497 0.000000
0.000044 0.000498 0.000000
0.001021 0.001006 0.000000
0.001232 0.001019 0.000000
0.001234 0.001008 0.000000
0.001241 0.000990 0.000000
0.001255 0.000988 0.000000
0.001258 0.000980 0.000000
0.001255 0.000983 0.000000
0.001269 0.000971 0.000000
0.001275 0.000964 0.000000
0.001280 0.000964 0.000000
0.001271 0.000966 0.000000
0.001273 0.000950 0.000000
0.001283 0.000948 0.000000
0.001289 0.000941 0.000000
0.001295 0.000948 0.000000
0.001293 0.000944 0.000000
0.001300 0.000938 0.000000
0.001301 0.000933 0.000000
0.001307 0.000927 0.000000
0.001307 0.000921 0.000000
0.000044 0.000445 0.000000
0.000047 0.000450 0.000000
0.000044 0.000455 0.000000
0.000046 0.000460 0.000000
0.000044 0.000467 0.000000
0.000046 0.000473 0.000000
0.000046 0.000478 0.000000
0.000039 0.000483 0.000000
0.000052 0.000485 0.000000
0.000045 0.000483 0.000000
0.000048 0.000492 0.000000
0.000050 0.000498 0.000000
0.001027 0.001010 0.000000
0.001228 0.001028 0.000000
0.001247 0.001003 0.000000
0.001250 0.000989 0.000000
0.001246 0.000987 0.000000
0.001259 0.000975 0.000000
0.001258 0.000971 0.000000
0.001264 0.000971 0.000000
0.001264 0.000961 0.000000
0.001276 0.000957 0.000000
0.001280 0.000960 0.000000
0.001287 0.000946 0.000000
0.001278 0.000948 0.000000
0.001285 0.000941 0.000000
0.001294 0.000939 0.000000
0.001296 0.000935 0.000000
0.001297 0.000928 0.000000
0.001301 0.000927 0.000000
0.001303 0.000923 0.000000
0.001304 0.000917 0.000000
0.000049 0.000445 0.000000
0.000053 0.000450 0.000000
0.000048 0.000454 0.000000
0.000053 0.000455 0.000000
0.000048 0.000465 0.000000
0.000050 0.000471 0.000000
0.000052 0.000467 0.000000
0.000051 0.000478 0.000000
0.000047 0.000488 0.000000
0.000052 0.000491 0.000000
0.000057 0.000492 0.000000
0.000053 0.000498 0.000000
0.001115 0.001043 0.000000
0.001219 0.001025 0.000000
0.001230 0.001015 0.000000
0.001241 0.000993 0.000000
0.001248 0.000981 0.000000
0.001253 0.000978 0.000000
0.001249 0.000975 0.000000
0.001254 0.000972 0.000000
0.001259 0.000961 0.000000
0.001268 0.000964 0.000000
0.001265 0.000958 0.000000
0.001275 0.000955 0.000000
0.001273 0.000943 0.000000
0.001281 0.000953 0.000000
0.001284 0.000937 0.000000
0.001286 0.000931 0.000000
0.001289 0.000935 0.000000
0.001293 0.000925 0.000000
0.001299 0.000920 0.000000
0.001300 0.000914 0.000000
0.000053 0.000445 0.000000
0.000058 0.000450 0.000000
0.000055 0.000460 0.000000
0.000051 0.000461 0.000000
0.000060 0.000466 0.000000
0.000053 0.000473 0.000000
0.000057 0.000476 0.000000
0.000057 0.000480 0.000000
0.000052 0.000483 0.000000
0.000057 0.000486 0.000000
0.000056 0.000497 0.000000
0.000059 0.000496 0.000000
0.001138 0.001044 0.000000
0.001228 0.001029 0.000000
[...]
POINT_DATA 11907
SCALARS density float 1
LOOKUP_TABLE default
4428.331675
4431.033869
4425.590345
4427.468846
4430.639512
4426.485547
4434.884271
4427.726066
4430.877973
4420.061003
4429.658683
4405.960120
4431.679267
4418.081571
4414.330480
4434.815569
4432.798458
4435.062354
4448.174007
4447.008943
4431.382425
4420.061173
4401.486797
4435.244732
4424.818930
4424.191133
4453.286421
4420.001346
4421.663303
4446.822024
4427.146982
4407.935487
4430.849005
4431.493909
4429.881427
4428.359946
4432.625256
4421.366018
4429.830882
4422.297471
4423.726102
4433.878026
4449.045237
4409.231687
4412.670459
4427.805882
4418.737315
4410.614934
4427.240947
4431.340545
4443.341038
4466.325309
4443.195967
4432.629408
4412.076702
4392.242884
4434.347018
4397.281278
4433.420197
4454.383552
4424.125846
4439.833413
4406.713603
4409.130948
4420.759073
4424.199995
4436.231595
4418.681763
4432.252209
4421.142771
4451.966746
4395.352591
4463.720025
4378.255475
4448.179199
4401.489393
4464.601962
4437.047231
4428.355746
4398.110086
4419.061880
4410.563079
4470.743474
4450.257239
4440.077640
4378.476137
4412.003129
4429.193930
4396.620130
4452.503158
4447.154430
4397.326171
4418.052966
4432.010952
4439.943882
4405.827619
4424.732902
4439.337151
4443.502949
4418.510751
4420.782915
4447.430253
4459.413196
4384.437214
4471.307689
4393.170776
4508.215103
4404.802399
4434.620289
4414.431298
4413.261831
4476.407728
4444.816851
4438.419643
4425.647112
4388.390616
4444.607735
4434.485193
4430.961164
4441.595956
4397.428200
4475.045077
4421.278882
4473.827237
4439.595562
4372.419413
4490.761357
4445.327193
4437.043111
4423.662543
4434.989118
4439.830949
4408.596564
4441.122114
4425.348898
4446.539896
4475.613194
4366.770692
4463.817805
4433.276081
4416.574644
4441.524083
4471.707627
4385.916215
4459.010321
4400.076631
4458.948224
4434.647441
4420.840828
4397.325446
4413.354772
4429.921109
4419.762607
4429.911449
4415.477898
4460.565353
4448.612687
4418.487320
4392.450496
4415.968482
4434.052285
4435.794384
4440.675363
4409.477738
4436.828677
4415.487674
4461.308332
4372.245566
4424.628072
4474.161048
4425.221731
4424.562121
4437.116010
4417.714108
4367.999231
4436.070822
4393.813353
4454.005955
4390.548389
4440.711896
4489.646736
4450.452615
4426.243461
4452.799081
4433.495724
4463.013133
4395.766731
4420.572473
4399.999019
4419.525322
4461.268746
4409.113602
4420.881926
4428.434199
4415.404000
4443.839012
4435.867250
4449.743570
4396.645726
4446.742834
4441.714141
4401.833134
4451.388299
4419.776941
4423.481132
4443.679417
4466.248382
4466.078616
4433.505101
4428.058820
4408.865762
4427.941201
4439.233749
4459.913282
4442.383235
4457.847052
4434.730021
4375.065113
4396.268618
4462.501598
4446.092735
4425.465056
4437.816442
4446.972262
4426.815522
4435.734958
4441.688598
4431.737351
4426.788920
4430.705322
4447.649984
4426.742488
4408.944248
4431.020634
4428.208287
4443.742005
4417.019492
4427.559980
4388.139599
4392.203992
4423.132216
4451.462972
4439.738542
4403.866891
4409.212807
4449.891338
4407.502960
4450.800718
4394.976509
4453.722257
4429.044011
4435.230066
4457.469900
4393.139861
4414.633349
4407.764158
4430.472611
4417.815868
4414.126132
4433.055561
4434.467567
4439.005465
4437.219060
4424.240439
4441.098765
4430.057689
4431.961609
4425.009695
4437.097382
4454.815060
4403.481465
4449.505201
4406.817737
4461.540864
4451.758467
4417.706334
4415.038617
4441.186514
4457.792762
4415.891408
4409.272195
4448.483180
4425.761001
4435.507150
4428.920390
4403.970049
4449.030237
4426.169455
4431.538135
4422.190438
4431.997237
4431.920551
4408.844284
4430.939817
4439.915287
4427.133843
4449.482209
4429.464668
4467.396851
4428.945153
4430.577950
4440.297386
4399.069859
4446.045695
4438.838614
4424.696730
4448.657560
4449.281860
4424.956565
4445.404094
4434.116696
4411.291673
4456.974720
4452.141029
4422.086245
4460.848856
4395.359138
4430.382763
4422.349313
4448.464449
4423.136735
4418.630593
4444.884483
4401.596662
4441.257611
4454.208879
4396.712412
4377.430777
4394.775100
4427.862405
4517.193221
4408.056802
4438.161357
4422.911595
4392.184897
4461.862512
4412.376392
4377.773524
4458.815285
4438.478816
4429.598913
4417.954861
4452.703174
4434.695342
4379.931909
4403.263896
4438.663492
4451.371006
4391.152273
4443.266610
4411.376653
4424.201306
4443.671730
4432.827360
4458.393854
4419.792215
4433.866988
4459.623425
4403.462900
4448.985704
4467.079954
4359.239683
4415.574746
4410.895250
4434.759777
4426.000584
4425.179979
4404.783516
4468.123070
4434.655373
4399.684357
4410.837192
4431.221148
4408.534933
4432.537770
4444.736841
4451.326033
4424.750063
4458.446250
4426.517406
4417.150014
4440.815291
4432.918502
4424.727276
4422.354098
4410.990773
4434.437156
4389.822589
4396.539465
4438.099972
4412.884148
4401.629721
4433.948391
4404.290358
4438.685394
4433.055382
4425.339267
4428.989800
4418.371558
4375.308976
4395.767771
4415.132909
4446.217494
4469.638288
4438.372064
4444.544921
4468.793558
4402.670933
4423.165430
4447.122621
4423.771658
4414.797534
4407.887958
4417.664031
4432.772222
4434.991115
4440.766702
4428.665703
4438.804065
4432.903392
4443.975867
4424.583067
4414.407237
4436.445057
4466.511184
4430.411065
4414.538150
4440.564666
4414.835918
4434.229011
4407.777520
4382.717118
4421.813368
4389.939836
4456.252850
4389.808904
4397.707081
4460.056914
4460.750339
4442.446781
4415.743804
4447.849050
4431.780983
4425.307724
4455.008472
4449.266945
4422.668784
4421.225827
4419.020551
4440.681790
4425.201725
4448.752127
4409.173698
4419.470511
4412.742494
4432.731188
4387.950848
4433.099599
4438.865480
4451.655068
4433.771097
4442.420308
4425.319241
4467.773292
4443.985317
4442.883736
4453.963642
4456.299611
4398.755765
4417.717322
4418.246563
4426.972069
4460.918899
4408.046293
4434.260161
4413.843015
4432.618281
4385.549864
4440.762101
4435.353782
4435.192486
4436.467083
4421.174966
4437.575738
4424.757710
4441.073088
4452.670545
4432.973732
4441.402264
4395.970015
4399.725867
4447.242742
4427.982477
4427.169686
4437.048399
4450.366934
4443.724817
4417.222567
4396.141605
4423.070335
4387.317850
4407.907083
4422.009493
4433.045891
4420.953083
4443.989876
4430.154482
4432.695932
4440.216165
4435.460523
4439.932431
4418.897036
4432.560763
4431.975487
4436.121796
4438.624598
4442.316570
4392.437519
4418.102927
4439.164369
4434.637290
4388.087093
4410.857996
4430.387124
4420.932615
4421.473422
4432.045656
4432.994544
4473.132246
4448.066787
4405.572432
4438.196874
4420.409691
4438.757381
4410.131173
4433.177211
4417.665004
4404.961539
4418.474149
4430.805249
4403.197567
4431.245031
4419.439837
4447.382246
4444.777002
4427.335536
4422.312200
4420.401469
4460.427015
4404.628187
4423.940968
4436.886560
4390.364551
4481.141196
4438.565379
4458.455950
4432.622583
4430.433118
4443.281281
4437.252481
4468.210419
4407.432400
4484.734655
4495.559203
4445.324706
4436.515059
4408.631612
4442.426818
4424.928755
4427.801230
4424.670912
4437.614045
4450.539009
4437.136929
4429.466065
4431.312326
4405.142819
4415.746601
4446.656714
4433.798410
4464.047146
4447.375988
4458.225128
4451.680340
4442.361630
4428.458168
4389.124025
4425.279555
4414.365509
4427.060614
4428.373842
4446.528849
4419.653980
4447.923600
4427.424485
4451.620539
4443.951917
4453.669524
4472.580793
4390.232943
4434.010192
4423.810828
4436.675668
4427.707399
4399.159132
4415.741337
4422.415105
4429.841698
4453.333452
4426.720933
4445.648430
4424.133095
4401.886628
4414.235912
4446.575072
4433.754324
4438.688507
4430.456024
4426.868582
4432.835581
4418.241634
4440.230872
4443.330848
4465.190359
4433.598497
4466.272566
4424.637302
4460.790561
4486.834609
4439.051773
4454.562263
4422.471601
4433.743639
4435.770681
4427.926521
4442.801833
4423.133089
4450.788324
4442.096129
4438.181750
4435.054732
4428.889959
4424.699127
4421.381808
4415.851828
4427.488386
4400.568011
4399.789837
4473.184030
4474.809769
4396.744208
4496.844698
4428.204051
4412.553874
4428.634936
4473.031719
4438.255300
4418.155785
4359.718162
4441.994248
4378.799856
4460.396268
4482.711283
4421.689138
4476.271390
4459.904831
4413.595219
4412.422620
4437.922285
4419.986778
4408.527340
4434.724088
4439.184784
4427.409416
4449.416848
4430.775620
4432.805648
4410.634893
4431.952174
4427.358885
4450.260195
4365.230147
4436.396991
4430.077516
4434.345395
4420.053352
4431.868251
4436.972329
4447.847243
4424.386928
4446.773749
4431.785131
4393.948815
4343.722254
4453.865496
4407.197112
4450.677823
4403.481573
4418.299107
4449.415402
4421.258501
4445.195778
4433.549132
4434.776092
4413.144673
4445.143400
4406.258439
4435.631062
4444.387942
4435.935350
4432.747010
4444.514097
4442.926011
4397.977359
4401.141696
4453.588977
4428.317990
4469.904992
4390.990723
4448.268685
4433.055735
4438.506754
4429.828384
4448.785369
4439.415088
4363.187385
4370.669761
4445.277334
4377.635854
4396.231275
4401.797807
4421.717528
4444.456270
4428.104854
4424.002283
4421.560620
4433.542227
4429.713652
4437.912782
4438.965653
4443.593562
4422.835734
4426.463413
4384.378620
4434.881352
4445.069970
4445.575522
4431.345260
4452.952886
4423.588604
4436.556715
4401.748389
4354.438913
4393.579554
4414.675223
4366.477482
4380.775871
4458.738643
4438.937237
4469.450845
4451.428708
4444.756438
4405.868148
4439.799989
4412.557955
4450.951272
4447.044570
4419.617516
4429.172432
4430.565773
4430.796239
4430.916299
4430.704039
4430.158816
4429.754991
4429.275713
4429.462148
4430.215742
4431.332140
4431.838853
4431.617552
4431.127380
4430.542000
4429.663749
4430.241966
4429.018905
4428.919341
4429.540781
4430.711944
4432.150954
4433.346792
4433.616271
4431.981140
4429.678313
4428.353275
4428.817692
4430.238841
4430.954388
4429.828923
4430.357247
4431.519049
4432.001049
4431.477276
4430.144190
4428.714699
4427.196176
4427.065759
4428.706214
4431.828169
4433.164597
4432.205340
4430.618892
4428.981483
4430.203507
4429.971631
4428.706112
4428.323050
4428.812896
4430.315727
4431.850189
4433.739024
4433.771991
4432.296694
4428.771884
4427.053755
4426.974743
4428.581107
4429.274833
4430.141415
4430.020042
4431.546070
4431.974340
4431.446971
4430.010223
4428.435312
4426.446146
4426.496793
4427.790092
4431.369341
4432.914985
4432.481639
4429.465384
4430.370680
4430.047005
4429.683659
4428.804054
4427.597815
4429.019601
4429.534989
4432.031580
4432.918079
4434.162040
4431.110894
4429.450764
4425.598942
4428.071311
4428.167241
4429.042043
4430.009561
4429.829810
4431.503490
4431.783769
4431.321134
4429.732288
4428.174544
4426.148509
4426.106357
4427.639476
4430.589422
4433.018680
4431.733127
4428.587831
4429.303373
4429.806790
4429.680807
4428.511118
4427.703049
4428.378551
4429.814984
4431.237878
4433.225963
4433.294213
4431.497015
4428.611487
4425.749788
4426.823170
4428.197417
4429.341450
4429.337146
4430.016077
4430.950367
4431.764013
4431.187085
4429.410510
4428.079882
4425.763390
4426.104359
4427.076674
4430.598776
4432.792354
4432.155224
4430.148052
4429.221112
4429.628661
4429.532317
4428.375380
4427.489653
4428.197302
4429.581544
4431.024356
4432.899237
4433.024777
4431.220908
4428.559170
4425.562092
4427.416678
4428.405597
4431.198392
4429.361782
4429.744640
4431.007020
4431.585708
4430.833391
4429.451087
4427.398274
4425.987853
4425.705208
4426.983768
4430.008677
4432.836678
4431.228254
4428.734338
4425.572523
4429.407628
4429.507998
4428.122858
4427.227053
4428.048173
4429.125140
4431.040728
4432.424914
4433.011350
4430.895746
4428.437722
4425.156383
4426.347344
4427.767061
4428.070840
4429.090084
4429.528976
4430.851629
4431.397354
4430.617825
4429.185254
4427.346381
4425.633228
4425.928404
4426.496106
4429.952879
4432.953273
4432.000822
4428.764274
4430.608197
4446.915699
4446.559158
4415.875599
4457.746830
4431.486354
4449.574799
4428.649637
4419.669596
4398.709221
4465.538885
4461.808789
4420.983555
4445.436895
4470.586379
4433.859921
4415.066872
4429.104045
4429.306110
4428.144687
4426.672954
4428.077934
4428.766282
4430.795473
4432.374593
4432.334034
4431.037919
4428.376467
4424.758011
4427.991753
4428.951844
4430.853856
4430.360081
4427.746277
4428.591258
4409.373000
4458.213750
4441.784502
4434.657778
4445.310767
4403.514183
4394.602902
4425.686526
4434.633273
4428.925904
4392.149703
4466.937799
4404.245140
4428.658817
4429.406243
4430.562958
4431.225856
4430.486066
4428.802707
4427.451247
4425.147273
4426.325698
4425.826286
4429.795615
4432.957230
4431.127222
4429.375438
4428.600871
4444.463388
4409.908491
4437.158919
4442.657209
4418.807493
4450.989409
4411.647427
4429.773236
4405.428756
4440.939226
4442.740656
4434.869473
4421.344604
4456.316988
4420.195433
4419.642623
4428.881368
4429.356823
4427.754111
4426.783339
4427.465538
4429.132932
4430.062636
4432.566039
4431.361791
4431.214470
4427.891264
4424.416659
4427.054930
4426.965147
4430.053287
4430.043457
4435.803646
4427.714351
4389.825960
4378.693682
4451.008996
4435.104541
4425.010048
4435.625185
4438.403692
4424.383531
4439.176460
4390.491819
4415.484263
4432.585046
4451.370988
4428.454133
4429.512657
4430.122889
4431.260305
4430.253815
4428.813085
4427.062615
4425.417617
4425.752763
4425.794451
4428.853351
4432.999938
4429.953379
4427.979720
4427.421045
4454.809378
4416.825895
4462.891518
4449.497292
4433.911067
4438.177290
4437.065051
4467.163617
4428.758472
4428.478852
4395.735164
4437.476696
4440.653605
4408.539187
4434.723131
4420.880319
4428.415920
4429.280304
4427.528502
4426.831158
4427.052450
4429.321763
4429.701773
4432.380467
4431.112497
4430.680409
4427.951789
4424.056637
4426.396846
4427.614800
4424.970637
4429.369297
4412.737370
4432.430235
4399.766750
4475.357530
4396.543608
4430.117198
4450.426986
4439.769032
4404.640279
4405.988492
4428.957655
4405.909916
4418.477107
4450.860328
4419.630533
4428.447502
4429.569066
4429.776176
4431.367597
4429.920929
4428.929230
4426.601835
4425.791360
4425.513509
4425.969817
4428.116065
4433.336847
4428.881283
4428.730551
4428.471763
4431.611149
4449.311910
4455.484974
4432.804397
4348.161290
4437.776811
4435.004198
4429.013311
4421.557456
4437.398145
4429.208603
4466.872655
4463.403058
4423.394896
4482.426099
4416.773939
4428.153640
4429.133140
4427.419913
4426.576643
4426.927473
4428.971552
4429.551023
4432.299718
4430.749637
4430.868273
4427.860631
4424.283682
4427.223718
4427.111830
4426.445285
4418.657094
4402.404697
4382.448169
4386.116120
4392.583554
4483.564381
4423.934454
4425.531431
4417.413118
4421.469408
4444.333270
4401.686070
4475.431354
4380.666247
4423.701736
4420.883670
4428.236934
4429.161976
4429.937405
4430.841024
4430.103492
4428.332968
4426.898244
4425.444795
4426.541737
4425.123084
4428.793213
4432.993206
4429.980528
4428.932362
4427.535932
4442.587050
4445.848194
4393.507272
4410.457106
4439.444674
4436.554570
4429.034463
4424.706943
4486.815266
4451.802197
4423.520808
4406.605756
4466.637895
4450.001797
4412.135119
4402.016141
4428.119862
4428.761765
4427.603902
4426.130851
4427.128989
4428.303880
4429.839636
4431.726462
4431.026884
4430.535723
4427.913103
4424.426294
4427.223123
4426.706513
4428.383115
4449.791505
4432.057932
4424.040272
4463.667532
4377.297445
4417.118076
4426.600102
4432.031632
4389.018477
4445.258642
4456.565256
4441.857939
4402.435066
4423.745814
4421.996847
4443.506175
4428.016570
4429.028691
4429.760673
4430.655167
4430.061492
4428.170657
4426.726855
4425.927107
4426.458848
4425.061356
4428.233181
4432.899028
4430.160890
4428.774463
4427.132697
4424.959105
4443.492824
4406.454272
4455.151826
4458.011062
4433.620226
4451.100461
4481.824254
4395.564998
4459.157083
4415.742221
4434.178846
4465.239325
4404.622377
4462.048222
4407.459811
4427.954463
4428.901833
4427.207758
4426.629116
4426.298998
4428.870776
4429.106215
4431.771749
4430.682954
4430.369630
4427.311898
4424.292749
4425.270323
4426.419338
4424.336384
4437.219219
4482.481075
4446.514677
4380.454691
4440.448592
4426.598353
4429.168659
4431.139761
4479.688660
4440.440031
4444.200797
4438.277031
4412.357042
4413.723118
4418.582132
4425.458274
4427.784895
4429.307121
4429.129136
4430.925938
4430.063335
4428.065298
4426.668563
4426.439924
4426.031968
4425.190659
4427.280150
4432.536409
4428.476962
4427.321149
4425.185800
4422.814386
4423.169382
4433.610694
4430.913696
4416.803017
4442.492387
4443.339915
4434.438013
4459.046223
4445.411103
4440.801491
4423.472051
4423.299980
4413.086298
4472.926964
4442.685996
4427.652160
4429.006297
4427.085038
4426.800803
4425.990081
4429.261639
4428.643381
4431.927954
4430.156683
4430.277533
4427.032326
4424.270670
4425.350365
4425.386901
4426.469096
4401.094546
4444.791420
4397.383708
4415.390367
4445.567359
4431.604919
4426.335789
4438.432617
4397.912139
4458.013137
4428.678513
4423.791863
4416.848007
4377.585469
4398.995722
4450.372918
4427.598740
4429.425673
4428.817644
4431.316272
4429.596895
4428.272764
4426.285737
4426.936279
4425.979248
4425.397062
4426.937367
4432.225354
4428.548492
4427.638996
4424.873163
4435.038473
4423.339870
4410.349363
4458.024588
4386.812701
4430.908746
4420.148253
4443.468327
4427.295428
4431.709988
4460.819114
4389.260375
4448.068373
4475.240859
4413.582892
4399.927127
4427.831709
4428.853174
4427.363800
4426.379892
4426.480781
4428.396229
4428.989227
4432.055063
4429.948716
4430.418796
4427.270073
4424.896298
4424.874718
4425.732829
4424.269726
4427.419486
4418.833757
4425.212221
4412.775216
4402.963455
4442.748205
4424.449090
4428.326618
4424.547444
4449.246450
4455.970118
4450.961608
4468.258082
4393.575241
4444.137639
4428.203678
4427.825976
4428.999814
4429.359399
4430.874975
4429.629940
4428.177521
4426.604771
4426.758032
4427.125120
4425.221211
4426.694210
4432.431709
4429.604789
4427.281725
4426.488082
4427.051334
4411.785778
4438.954614
4437.618539
4393.369004
4429.234080
4447.637386
4415.470946
4450.713522
4410.383691
4476.914360
4395.027757
4452.115055
4453.177430
4404.593464
4415.722231
4428.177260
4428.928726
4427.400236
4426.492462
4426.325005
4428.116824
4429.275203
4431.715572
4430.394873
4429.827934
4428.087315
4424.425763
4425.786124
4425.087623
4425.437749
4441.766498
4451.093334
4446.557182
4457.933385
4388.720107
4416.257871
4440.376444
4366.224279
4476.581956
4438.660439
4440.857086
4421.494449
4459.593117
4462.972989
4398.590960
4416.072200
4427.935136
4428.710113
4429.503265
4430.325006
4430.482159
4427.249740
4427.498551
4426.493586
4427.811882
4424.609760
4426.869081
4432.831871
4428.587404
4426.521650
4426.229517
4442.990207
4424.137190
4423.897062
4461.816976
4389.579445
4436.002722
4436.035327
4426.757180
4472.331280
4480.819566
4469.979936
4413.558089
4378.387239
4463.520083
4368.723229
4419.783442
4428.020828
4429.280447
4427.294696
4426.999936
4425.607127
4429.356125
4428.602390
4431.896433
4430.848403
4430.436566
4427.181867
4425.235751
4424.690797
4424.174470
4424.951520
4425.234360
4436.436336
4409.333831
4381.841225
4421.287457
4444.578430
4447.605197
4424.282618
4380.301076
4454.725404
4397.559562
4443.948612
4436.462847
4405.916648
4413.500367
4444.762113
4427.855873
4429.395699
4428.262608
4431.737779
4430.038200
4428.361619
4427.126518
4428.600341
4426.459099
4424.963240
4427.808784
4431.425337
4428.316229
4427.796883
4425.035144
4425.778864
4420.859436
4427.771223
4434.907255
4453.614974
4425.173152
4428.478582
4485.185949
4439.701701
4415.999413
4431.401719
4387.374180
4485.696255
4403.080996
4562.975310
4411.188239
4427.999997
4429.123785
4428.015792
4426.669418
4426.401362
4428.942792
4428.428993
4432.405470
4430.572994
4429.865318
4427.109781
4426.796663
4425.067058
4425.951722
4422.624986
4430.390407
4419.131124
4433.555781
4433.531698
4466.584545
4465.832190
4440.826854
4449.683777
4491.891757
4429.186854
4424.956239
4440.611888
4444.532631
4449.309841
4274.628306
4427.461075
4428.315154
4429.577184
4428.408030
4431.783988
4429.553309
4428.467213
4426.258478
4428.992025
4425.598909
4426.390266
4427.403673
4430.874711
4427.719191
4427.357484
4423.800394
4422.080565
4407.901087
4393.388006
4402.208052
4448.695380
4412.878438
4438.149493
4440.885062
4451.849406
4397.650583
4401.971953
4434.746778
4445.474806
4428.155396
4383.464766
4404.263441