# vtk DataFile Version 2.0
mfree iwf
ASCII

DATASET UNSTRUCTURED_GRID
POINTS 11376 float
0.000000 0.000445 0.000000
0.000000 0.000450 0.000000
0.000000 0.000455 0.000000
0.000000 0.000460 0.000000
-0.000000 0.000465 0.000000
0.000000 0.000470 0.000000
0.000000 0.000475 0.000000
-0.000000 0.000480 0.000000
0.000000 0.000485 0.000000
0.000000 0.000490 0.000000
-0.000000 0.000496 0.000000
0.000002 0.000500 0.000000
0.001010 0.000972 0.000000
0.001019 0.000971 0.000000
0.001065 0.000959 0.000000
0.001070 0.000956 0.000000
0.001070 0.000956 0.000000
0.001077 0.000954 0.000000
0.001083 0.000951 0.000000
0.001079 0.000953 0.000000
0.001093 0.000948 0.000000
0.001117 0.000937 0.000000
0.001123 0.000933 0.000000
0.001126 0.000930 0.000000
0.001130 0.000926 0.000000
0.001133 0.000923 0.000000
0.001137 0.000919 0.000000
0.001140 0.000916 0.000000
0.001143 0.000913 0.000000
0.001148 0.000908 0.000000
0.001152 0.000904 0.000000
0.001172 0.000893 0.000000
0.000005 0.000445 0.000000
0.000005 0.000450 0.000000
0.000005 0.000455 0.000000
0.000005 0.000460 0.000000
0.000005 0.000465 0.000000
0.000005 0.000470 0.000000
0.000005 0.000475 0.000000
0.000005 0.000480 0.000000
0.000005 0.000485 0.000000
0.000006 0.000490 0.000000
0.000003 0.000496 0.000000
0.000006 0.000499 0.000000
0.001060 0.000959 0.000000
0.001065 0.000950 0.000000
0.001098 0.000943 0.000000
0.001105 0.000941 0.000000
0.001109 0.000938 0.000000
0.001113 0.000936 0.000000
0.001115 0.000935 0.000000
0.001117 0.000931 0.000000
0.001120 0.000928 0.000000
0.001125 0.000924 0.000000
0.001131 0.000919 0.000000
0.001135 0.000915 0.000000
0.001139 0.000909 0.000000
0.001146 0.000904 0.000000
0.001149 0.000900 0.000000
0.001154 0.000897 0.000000
0.001164 0.000893 0.000000
0.001166 0.000892 0.000000
0.001161 0.000896 0.000000
0.001170 0.000891 0.000000
0.000010 0.000445 0.000000
0.000011 0.000450 0.000000
0.000010 0.000456 0.000000
0.000011 0.000460 0.000000
0.000010 0.000464 0.000000
0.000010 0.000469 0.000000
0.000009 0.000475 0.000000
0.000011 0.000480 0.000000
0.000009 0.000486 0.000000
0.000012 0.000489 0.000000
0.000008 0.000497 0.000000
0.000011 0.000498 0.000000
0.001060 0.000955 0.000000
0.001068 0.000948 0.000000
0.001084 0.000946 0.000000
0.001091 0.000944 0.000000
0.001096 0.000943 0.000000
0.001101 0.000941 0.000000
0.001091 0.000938 0.000000
0.001100 0.000934 0.000000
0.001105 0.000933 0.000000
0.001111 0.000930 0.000000
0.001120 0.000924 0.000000
0.001125 0.000920 0.000000
0.001124 0.000915 0.000000
0.001129 0.000911 0.000000
0.001134 0.000911 0.000000
0.001143 0.000905 0.000000
0.001156 0.000895 0.000000
0.001158 0.000894 0.000000
0.001163 0.000888 0.000000
0.001165 0.000882 0.000000
0.000014 0.000445 0.000000
0.000016 0.000450 0.000000
0.000013 0.000455 0.000000
0.000018 0.000460 0.000000
0.000016 0.000470 0.000000
0.000015 0.000464 0.000000
0.000013 0.000476 0.000000
0.000017 0.000480 0.000000
0.000014 0.000485 0.000000
0.000016 0.000489 0.000000
0.000014 0.000495 0.000000
0.000016 0.000498 0.000000
0.000025 0.000500 0.000000
0.001072 0.000949 0.000000
0.001086 0.000944 0.000000
0.001082 0.000941 0.000000
0.001096 0.000936 0.000000
0.001105 0.000938 0.000000
0.001107 0.000928 0.000000
0.001114 0.000925 0.000000
0.001109 0.000922 0.000000
0.001116 0.000921 0.000000
0.001125 0.000907 0.000000
0.001129 0.000916 0.000000
0.001134 0.000904 0.000000
0.001139 0.000905 0.000000
0.001139 0.000900 0.000000
0.001144 0.000899 0.000000
0.001148 0.000893 0.000000
0.001152 0.000891 0.000000
0.001156 0.000887 0.000000
0.001163 0.000880 0.000000
0.000019 0.000445 0.000000
0.000021 0.000450 0.000000
0.000018 0.000455 0.000000
0.000022 0.000458 0.000000
0.000017 0.000467 0.000000
0.000026 0.000467 0.000000
0.000018 0.000475 0.000000
0.000022 0.000479 0.000000
0.000019 0.000486 0.000000
0.000021 0.000491 0.000000
0.000021 0.000497 0.000000
0.000022 0.000499 0.000000
0.000039 0.000500 0.000000
0.001068 0.000937 0.000000
0.001075 0.000942 0.000000
0.001082 0.000935 0.000000
0.001088 0.000941 0.000000
0.001098 0.000930 0.000000
0.001097 0.000926 0.000000
0.001111 0.000920 0.000000
0.001101 0.000924 0.000000
0.001114 0.000915 0.000000
0.001115 0.000906 0.000000
0.001120 0.000902 0.000000
0.001126 0.000902 0.000000
0.001134 0.000898 0.000000
0.001140 0.000890 0.000000
0.001145 0.000890 0.000000
0.001149 0.000887 0.000000
0.001157 0.000882 0.000000
0.001160 0.000885 0.000000
0.001160 0.000876 0.000000
0.000024 0.000445 0.000000
0.000026 0.000450 0.000000
0.000025 0.000456 0.000000
0.000025 0.000461 0.000000
0.000021 0.000466 0.000000
0.000025 0.000473 0.000000
0.000023 0.000476 0.000000
0.000027 0.000481 0.000000
0.000023 0.000485 0.000000
0.000026 0.000488 0.000000
0.000026 0.000493 0.000000
0.000027 0.000500 0.000000
0.001040 0.000966 0.000000
0.001074 0.000946 0.000000
0.001079 0.000945 0.000000
0.001093 0.000932 0.000000
0.001086 0.000930 0.000000
0.001106 0.000927 0.000000
0.001104 0.000919 0.000000
0.001094 0.000925 0.000000
0.001102 0.000915 0.000000
0.001119 0.000917 0.000000
0.001117 0.000911 0.000000
0.001121 0.000912 0.000000
0.001130 0.000907 0.000000
0.001131 0.000900 0.000000
0.001143 0.000894 0.000000
0.001138 0.000894 0.000000
0.001152 0.000884 0.000000
0.001144 0.000884 0.000000
0.001153 0.000879 0.000000
0.001156 0.000873 0.000000
0.000030 0.000445 0.000000
0.000030 0.000450 0.000000
0.000029 0.000455 0.000000
0.000030 0.000460 0.000000
0.000032 0.000464 0.000000
0.000027 0.000468 0.000000
0.000031 0.000471 0.000000
0.000031 0.000477 0.000000
0.000030 0.000486 0.000000
0.000031 0.000492 0.000000
0.000033 0.000497 0.000000
0.000030 0.000499 0.000000
0.000049 0.000500 0.000000
0.001064 0.000944 0.000000
0.001077 0.000933 0.000000
0.001087 0.000934 0.000000
0.001083 0.000931 0.000000
0.001090 0.000928 0.000000
0.001096 0.000917 0.000000
0.001109 0.000908 0.000000
0.001108 0.000915 0.000000
0.001112 0.000910 0.000000
0.001121 0.000906 0.000000
0.001125 0.000893 0.000000
0.001127 0.000898 0.000000
0.001131 0.000894 0.000000
0.001135 0.000886 0.000000
0.001135 0.000891 0.000000
0.001142 0.000880 0.000000
0.001147 0.000880 0.000000
0.001152 0.000875 0.000000
0.001154 0.000869 0.000000
0.000035 0.000445 0.000000
0.000035 0.000450 0.000000
0.000034 0.000456 0.000000
0.000038 0.000454 0.000000
0.000035 0.000468 0.000000
0.000037 0.000472 0.000000
0.000031 0.000479 0.000000
0.000041 0.000478 0.000000
0.000035 0.000483 0.000000
0.000034 0.000488 0.000000
0.000037 0.000491 0.000000
0.000036 0.000498 0.000000
0.000998 0.000971 0.000000
0.001036 0.000968 0.000000
0.001072 0.000937 0.000000
0.001078 0.000928 0.000000
0.001091 0.000921 0.000000
0.001083 0.000919 0.000000
0.001099 0.000920 0.000000
0.001097 0.000912 0.000000
0.001106 0.000912 0.000000
0.001098 0.000904 0.000000
0.001106 0.000897 0.000000
0.001119 0.000894 0.000000
0.001121 0.000897 0.000000
0.001126 0.000889 0.000000
0.001139 0.000883 0.000000
0.001131 0.000873 0.000000
0.001143 0.000875 0.000000
0.001145 0.000874 0.000000
0.001149 0.000871 0.000000
0.001150 0.000865 0.000000
0.000040 0.000445 0.000000
0.000041 0.000450 0.000000
0.000036 0.000461 0.000000
0.000040 0.000459 0.000000
0.000042 0.000463 0.000000
0.000039 0.000467 0.000000
0.000042 0.000472 0.000000
0.000037 0.000478 0.000000
0.000041 0.000487 0.000000
0.000042 0.000491 0.000000
0.000041 0.000497 0.000000
0.000044 0.000498 0.000000
0.000852 0.000915 0.000000
0.001060 0.000951 0.000000
0.001064 0.000940 0.000000
0.001073 0.000924 0.000000
0.001088 0.000923 0.000000
0.001092 0.000915 0.000000
0.001087 0.000919 0.000000
0.001103 0.000908 0.000000
0.001110 0.000901 0.000000
0.001113 0.000902 0.000000
0.001106 0.000904 0.000000
0.001112 0.000890 0.000000
0.001120 0.000887 0.000000
0.001126 0.000883 0.000000
0.001130 0.000888 0.000000
0.001131 0.000882 0.000000
0.001136 0.000879 0.000000
0.001139 0.000872 0.000000
0.001145 0.000868 0.000000
0.001147 0.000862 0.000000
0.000044 0.000445 0.000000
0.000046 0.000450 0.000000
0.000044 0.000454 0.000000
0.000045 0.000460 0.000000
0.000044 0.000468 0.000000
0.000046 0.000474 0.000000
0.000046 0.000479 0.000000
0.000040 0.000483 0.000000
0.000052 0.000485 0.000000
0.000045 0.000484 0.000000
0.000048 0.000493 0.000000
0.000050 0.000498 0.000000
0.000857 0.000920 0.000000
0.001056 0.000960 0.000000
0.001078 0.000938 0.000000
0.001081 0.000924 0.000000
0.001079 0.000921 0.000000
0.001091 0.000911 0.000000
0.001092 0.000907 0.000000
0.001098 0.000907 0.000000
0.001100 0.000897 0.000000
0.001111 0.000895 0.000000
0.001116 0.000898 0.000000
0.001122 0.000884 0.000000
0.001115 0.000885 0.000000
0.001122 0.000879 0.000000
0.001130 0.000878 0.000000
0.001135 0.000875 0.000000
0.001134 0.000870 0.000000
0.001138 0.000867 0.000000
0.001142 0.000865 0.000000
0.001143 0.000858 0.000000
0.000049 0.000445 0.000000
0.000052 0.000450 0.000000
0.000049 0.000455 0.000000
0.000054 0.000454 0.000000
0.000047 0.000464 0.000000
0.000049 0.000471 0.000000
0.000052 0.000468 0.000000
0.000051 0.000477 0.000000
0.000047 0.000488 0.000000
0.000052 0.000491 0.000000
0.000057 0.000492 0.000000
0.000053 0.000498 0.000000
0.000941 0.000962 0.000000
0.001047 0.000957 0.000000
0.001059 0.000947 0.000000
0.001073 0.000927 0.000000
0.001079 0.000915 0.000000
0.001086 0.000913 0.000000
0.001081 0.000909 0.000000
0.001088 0.000908 0.000000
0.001095 0.000898 0.000000
0.001101 0.000901 0.000000
0.001099 0.000894 0.000000
0.001108 0.000890 0.000000
0.001113 0.000880 0.000000
0.001116 0.000891 0.000000
0.001122 0.000875 0.000000
0.001126 0.000869 0.000000
0.001126 0.000875 0.000000
0.001135 0.000864 0.000000
0.001138 0.000860 0.000000
0.001140 0.000855 0.000000
0.000054 0.000445 0.000000
0.000057 0.000450 0.000000
0.000053 0.000459 0.000000
0.000052 0.000463 0.000000
0.000059 0.000467 0.000000
0.000054 0.000473 0.000000
0.000057 0.000476 0.000000
0.000057 0.000481 0.000000
0.000052 0.000483 0.000000
0.000056 0.000487 0.000000
0.000056 0.000497 0.000000
0.000059 0.000496 0.000000
0.000964 0.000966 0.000000
0.001055 0.000961 0.000000
[...]
POINT_DATA 11376
SCALARS density float 1
LOOKUP_TABLE default
4429.560038
4438.055360
4428.901580
4417.121662
4424.268198
4424.675361
4428.719929
4436.068581
4430.205470
4421.338519
4433.906836
4400.589332
4433.020211
4421.737059
4419.872535
4439.918996
4441.299646
4441.446545
4447.289829
4452.596113
4425.557092
4429.979894
4395.440948
4441.388853
4433.253183
4430.227860
4452.772104
4422.508652
4412.811044
4448.181924
4420.767045
4401.532764
4429.424723
4419.416492
4411.238270
4442.615531
4456.232424
4429.404123
4427.836669
4422.707154
4412.788843
4428.214514
4456.729598
4407.296793
4413.496489
4409.800934
4414.849159
4411.618645
4423.877341
4426.426208
4447.091074
4457.641412
4454.505520
4397.759845
4393.874196
4386.328464
4448.671184
4401.939585
4433.467333
4459.103491
4420.435382
4432.771727
4404.180579
4403.127812
4419.052982
4428.239738
4469.076832
4409.847895
4395.019036
4401.727776
4451.750707
4377.386934
4477.629266
4370.835026
4451.867301
4399.242939
4459.455148
4470.682561
4430.959302
4397.773955
4421.681825
4412.523130
4453.526062
4441.192364
4411.316250
4391.396104
4419.492290
4446.157698
4395.974303
4436.320478
4444.184208
4396.578472
4421.618880
4429.106816
4452.232582
4411.208278
4421.185011
4436.870249
4426.914988
4421.419703
4420.799782
4468.340109
4478.699064
4380.165484
4487.521093
4375.563374
4519.294533
4398.055162
4436.218783
4375.301994
4421.828685
4447.281121
4478.194847
4454.625566
4454.331933
4381.888075
4429.408979
4436.598421
4421.340763
4465.796260
4397.694323
4461.151799
4432.747975
4470.567266
4438.123951
4364.822789
4498.180335
4443.265596
4444.679763
4437.072150
4422.073161
4454.558148
4451.359818
4457.295376
4407.971577
4463.608439
4470.366979
4378.540846
4465.902878
4434.369480
4415.131718
4426.503896
4483.203554
4421.351301
4476.295632
4392.855894
4464.391360
4450.012911
4401.472438
4387.701496
4401.187240
4418.495979
4424.128981
4431.594890
4421.931688
4463.696155
4457.367433
4379.343343
4398.760916
4420.446440
4434.598782
4444.929435
4421.957598
4400.908556
4394.323333
4412.550280
4473.421568
4355.843513
4430.736636
4477.094305
4408.083340
4425.787341
4435.575175
4409.226530
4388.885446
4391.378907
4447.876246
4454.748527
4409.358288
4427.543461
4461.221940
4445.436139
4460.034898
4439.749343
4448.464191
4454.326356
4384.055069
4426.650516
4413.974293
4418.452284
4496.145129
4411.728531
4421.070772
4435.080840
4417.248999
4448.977235
4406.142378
4467.923418
4377.026572
4459.126097
4446.752269
4410.302450
4460.445259
4421.011178
4421.244629
4439.286818
4459.864131
4393.088644
4441.656657
4469.257463
4417.617794
4415.666140
4436.818440
4457.215191
4447.114084
4448.095828
4431.830454
4396.718577
4413.008575
4454.741564
4433.743570
4392.195468
4399.825847
4443.149215
4433.224558
4415.608516
4456.590625
4416.318331
4447.882815
4434.780622
4451.463048
4426.971724
4392.083354
4435.571646
4413.929413
4443.534121
4412.727653
4426.854742
4398.253165
4409.453500
4420.725165
4446.622176
4451.190495
4399.482599
4437.176799
4454.824897
4392.579369
4438.508469
4412.875127
4451.151736
4438.124505
4435.865484
4445.830067
4461.851799
4414.687678
4416.618381
4434.463638
4432.463712
4406.514558
4441.683114
4431.174678
4440.051445
4418.310198
4429.256081
4453.347797
4421.013370
4433.678979
4430.162144
4428.772418
4464.198063
4405.142358
4435.283053
4413.983874
4443.359455
4451.782586
4430.246453
4456.675703
4440.405546
4417.184472
4438.212382
4413.612828
4426.059304
4425.421650
4428.056481
4419.745750
4394.546626
4414.727929
4433.215351
4430.686382
4422.707743
4433.357835
4423.350224
4399.701041
4452.247140
4430.956690
4435.785980
4462.666394
4421.433637
4470.582111
4424.563723
4433.892667
4438.690565
4393.892349
4416.799525
4434.321900
4457.164612
4415.883344
4449.074387
4454.788722
4420.475539
4428.326088
4434.628789
4423.811857
4444.035123
4433.986013
4446.232917
4429.169188
4459.400415
4431.661329
4426.535005
4427.710857
4426.423476
4431.463001
4438.784073
4439.572942
4449.370402
4427.113939
4383.713409
4387.964897
4433.050347
4530.549557
4402.865260
4436.155261
4429.265352
4396.210718
4445.545073
4428.198479
4381.160030
4466.417640
4432.568845
4395.902755
4430.047327
4443.610324
4430.625215
4435.698532
4441.826617
4442.374514
4436.011060
4402.800097
4409.703906
4419.896155
4430.017381
4444.506626
4417.558693
4441.746113
4396.086861
4434.966574
4450.747125
4435.028995
4449.758074
4464.640875
4352.289756
4407.405491
4413.304400
4426.041934
4433.738446
4422.409233
4416.696697
4443.971776
4437.895991
4392.738056
4441.540390
4445.888021
4378.620495
4442.287266
4401.224434
4410.757567
4442.704162
4460.722166
4421.116341
4448.539604
4445.350957
4427.829084
4427.640230
4425.342447
4423.784372
4402.969365
4401.492748
4438.565889
4431.998557
4416.967205
4419.111183
4460.518535
4391.750803
4446.530311
4437.929198
4413.077935
4427.867213
4424.784381
4380.846359
4390.671868
4416.408500
4440.530431
4418.524723
4451.787203
4442.502455
4442.015312
4410.776735
4403.040417
4425.838094
4428.856643
4434.685947
4403.871366
4421.975085
4436.345272
4430.225659
4438.054678
4425.815256
4449.291765
4407.676743
4449.968706
4440.666838
4426.359506
4395.424572
4442.976701
4412.803780
4417.080123
4440.771682
4414.715254
4436.781393
4416.749660
4391.724174
4448.592360
4371.937959
4442.024092
4418.350506
4445.257254
4437.544738
4464.374576
4435.798179
4431.027510
4447.043332
4426.344360
4444.359923
4433.446229
4435.896954
4427.036156
4428.400017
4403.889787
4448.105436
4438.154532
4444.622965
4441.140827
4449.216335
4430.334289
4439.369984
4399.937964
4416.303937
4441.360621
4450.365032
4424.577257
4440.371697
4434.190500
4457.049933
4446.679349
4465.291260
4458.635280
4443.182835
4385.792911
4411.714586
4424.695633
4441.492629
4443.980168
4425.845489
4442.946993
4404.642367
4418.751522
4399.298101
4437.842079
4435.430161
4441.823798
4411.607760
4398.827497
4440.345278
4420.934045
4398.832930
4434.576772
4436.250141
4446.544637
4398.209640
4389.313366
4450.503408
4431.896234
4419.569700
4429.698637
4445.052391
4435.923759
4411.658631
4409.951285
4414.643459
4394.501383
4415.073196
4408.178694
4429.323224
4402.451489
4429.670608
4430.534310
4443.996302
4440.896089
4435.658276
4421.409304
4429.019627
4422.788606
4432.185546
4420.244880
4445.201490
4366.348714
4434.242896
4422.947710
4429.238314
4413.544434
4382.521729
4394.696917
4432.751467
4428.749917
4425.795495
4423.464605
4436.077984
4481.654697
4443.296591
4421.254366
4442.104398
4418.256296
4453.773707
4447.471239
4427.307903
4431.001086
4396.152877
4410.088032
4437.499396
4403.571165
4444.690145
4419.164279
4442.862555
4444.095699
4425.863932
4430.700829
4410.135192
4450.094757
4451.183730
4435.042551
4441.258893
4405.746412
4502.500591
4437.054813
4474.726250
4434.127344
4427.114902
4440.367767
4435.785959
4462.410890
4422.499202
4488.794236
4502.416944
4433.462766
4428.322025
4419.115404
4447.337532
4432.753647
4441.270352
4415.596286
4445.969127
4439.378079
4438.455582
4424.527516
4429.124097
4417.891292
4427.132809
4431.648384
4437.286524
4429.984341
4442.230022
4447.914013
4443.168147
4450.913849
4444.094156
4383.651008
4418.126179
4413.436935
4413.869761
4431.950714
4437.645724
4423.578272
4440.999926
4434.352295
4436.320920
4432.712027
4448.661355
4432.510761
4417.764349
4419.557398
4441.877059
4442.183955
4435.026459
4418.563091
4416.062333
4424.103595
4435.050772
4461.924386
4420.856970
4434.329213
4446.890576
4414.873205
4417.386776
4434.960346
4453.909270
4422.013504
4413.962146
4428.763276
4433.885888
4425.713701
4442.798563
4440.863617
4469.037322
4434.206646
4441.250846
4437.130547
4445.564577
4492.691194
4439.053975
4447.272016
4439.276302
4395.986409
4428.377607
4402.966411
4431.552402
4436.647140
4446.932053
4430.455862
4431.404511
4428.819611
4430.624262
4447.184074
4411.627142
4408.768409
4466.318895
4400.326981
4402.885263
4464.883480
4471.523483
4392.089778
4502.142608
4423.323802
4432.938729
4415.205415
4472.416920
4438.634030
4420.532962
4354.471684
4438.710419
4388.101166
4440.670287
4477.266564
4428.895289
4463.987321
4447.803620
4418.731705
4423.029591
4442.654141
4408.897911
4415.346355
4424.677337
4428.694043
4420.528560
4421.374504
4442.563968
4446.297140
4435.231588
4436.170311
4417.230157
4454.450372
4361.395945
4433.849270
4435.479714
4435.488007
4423.630097
4431.020754
4450.913727
4456.330646
4411.859420
4444.901416
4422.609082
4390.214340
4348.629522
4460.005914
4394.241606
4426.213024
4423.599906
4447.500231
4420.642404
4450.011617
4425.637327
4458.003838
4427.762383
4414.294974
4429.792393
4395.940525
4426.289354
4421.468229
4411.131265
4442.729547
4411.685138
4457.385535
4396.915258
4396.101192
4461.499596
4433.566961
4474.177923
4391.499600
4436.959293
4436.875642
4436.230476
4432.352516
4461.520933
4447.091294
4374.622769
4358.867264
4456.612379
4392.527198
4378.538594
4421.365578
4429.325289
4459.921768
4415.655194
4414.450823
4416.409872
4435.370087
4428.385537
4448.874329
4422.362658
4439.156538
4415.529469
4413.582719
4431.779064
4455.823059
4456.667101
4431.674893
4428.181547
4458.907730
4411.712766
4436.467750
4399.445852
4372.269357
4419.008525
4406.197703
4418.351784
4388.486865
4446.952859
4440.432843
4456.913981
4441.755130
4469.823375
4413.674645
4436.917513
4452.342958
4412.143571
4457.643513
4425.992476
4426.885654
4430.222779
4430.299304
4430.394482
4430.232050
4429.754694
4429.494355
4429.142995
4429.426339
4430.099856
4431.108781
4431.519359
4431.377478
4430.431687
4430.040593
4427.876744
4429.551221
4428.580546
4428.862895
4429.711534
4430.848508
4432.214725
4433.226856
4433.434540
4431.937377
4430.082543
4428.752328
4428.815673
4430.375694
4432.124465
4428.668779
4429.836148
4430.780691
4431.060413
4430.518274
4429.305726
4428.191105
4426.829351
4427.037675
4428.487539
4431.182951
4432.452687
4431.964606
4430.929835
4428.074712
4429.029218
4429.351982
4428.322345
4428.282080
4429.128120
4430.540824
4431.941778
4433.728442
4433.492085
4432.177628
4429.152870
4427.549666
4427.200097
4428.807562
4430.045950
4429.392770
4429.764507
4430.883347
4431.147948
4430.407619
4429.242136
4427.777763
4426.157655
4426.268093
4427.695906
4430.577195
4432.014360
4432.298480
4429.236273
4430.010244
4429.271140
4429.342610
4428.311538
4427.905921
4429.191651
4429.935915
4432.085744
4433.020585
4433.791000
4431.162449
4429.393730
4426.320939
4427.418544
4428.020440
4428.439462
4429.564602
4429.599603
4431.092885
4430.951898
4430.360287
4429.064262
4427.523665
4425.864804
4425.901675
4427.356498
4430.055298
4431.845942
4430.732415
4428.030975
4427.647325
4429.221839
4429.199949
4428.373279
4427.746014
4428.983873
4429.861235
4431.679852
4433.044829
4433.293042
4431.276603
4428.773195
4426.301229
4427.132198
4426.798684
4429.178552
4429.018156
4429.775508
4430.745012
4430.820498
4430.493947
4428.562675
4427.780835
4425.254656
4426.079782
4426.791658
4430.321166
4431.660723
4432.198241
4429.492543
4430.528340
4429.093162
4429.285634
4428.060198
4427.888970
4428.513749
4430.045378
4431.049038
4433.148716
4432.934079
4431.099815
4428.868205
4426.187740
4427.951172
4429.140386
4428.860328
4429.126789
4429.849772
4430.486300
4431.152909
4429.757753
4429.012252
4426.864038
4425.792931
4425.307059
4427.246225
4429.401038
4432.418660
4430.356128
4429.730413
4427.845875
4428.942560
4429.218175
4427.920384
4427.570320
4428.448150
4429.626663
4430.963265
4432.888644
4432.887947
4431.083626
4428.358090
4426.340073
4427.022347
4428.104865
4428.867312
4428.921781
4429.455218
4430.677088
4430.744795
4429.880238
4428.511491
4427.179252
4425.275624
4425.737420
4426.464241
4429.941630
4431.840592
4431.921164
4429.443314
4430.591497
4447.588170
4441.575539
4439.439990
4429.311816
4421.068374
4453.782241
4431.733616
4407.119201
4420.166591
4455.656353
4456.372887
4395.508369
4422.112740
4452.728024
4423.208721
4426.530715
4428.716993
4428.990241
4427.974332
4426.942908
4428.639168
4429.065838
4430.999556
4432.518677
4432.758032
4430.748244
4428.444188
4425.758649
4428.256526
4429.208462
4431.337096
4437.365273
4409.684126
4404.103220
4401.943545
4411.364633
4444.073613
4432.676523
4390.539622
4383.057143
4413.262546
4419.930140
4437.074266
4428.081777
4389.330747
4420.535432
4410.888875
4428.531723
4429.431364
4430.390727
4430.778620
4429.567290
4428.407357
4427.073228
4425.109905
4425.770308
4425.990548
4429.410981
4431.840470
4430.886789
4429.593331
4430.831966
4440.178999
4412.255061
4425.012670
4430.961191
4411.259586
4447.650797
4416.664287
4421.298357
4395.288163
4445.339954
4431.706157
4429.214327
4436.607476
4439.764986
4440.182825
4426.170640
4428.490068
4429.172435
4427.385241
4427.249843
4427.735556
4429.619399
4429.922978
4433.028182
4431.496052
4431.216857
4427.459779
4425.100043
4426.820659
4426.859892
4428.606198
4448.563207
4438.977658
4402.379008
4406.792620
4404.834929
4446.397095
4429.482601
4430.285602
4435.582680
4462.699879
4438.823636
4428.434101
4369.601456
4389.339510
4449.933842
4453.407485
4428.218152
4429.582802
4429.988305
4430.780032
4429.478093
4428.226128
4426.918959
4425.077728
4425.452999
4425.597107
4428.493614
4431.590955
4429.310467
4427.165507
4427.728124
4459.550469
4405.946810
4455.407017
4454.432380
4448.173319
4428.719773
4439.607643
4459.501764
4427.650972
4437.723742
4382.554100
4439.892573
4406.862232
4428.367963
4432.299854
4420.978502
4428.101703
4428.989016
4427.279415
4427.106468
4427.474341
4429.602448
4429.628782
4432.718050
4431.374931
4430.664730
4427.312525
4424.403399
4426.028601
4426.808338
4425.179978
4437.253303
4403.209404
4426.934330
4396.758958
4483.161581
4387.697976
4429.225412
4435.888042
4441.984227
4402.905022
4398.330607
4410.817040
4427.017978
4417.916555
4447.464688
4418.166187
4428.367999
4429.473700
4429.962548
4430.849196
4429.229339
4428.416069
4426.389087
4425.502689
4425.086636
4425.589623
4427.775982
4431.557331
4427.839896
4427.815037
4425.912378
4433.255466
4440.846148
4469.510084
4416.714175
4374.613349
4448.440866
4433.625512
4431.511098
4414.339499
4443.863227
4434.866173
4463.473489
4446.772173
4414.400054
4482.681701
4409.878420
4427.943986
4428.823416
4427.258683
4426.666428
4427.507893
4429.023790
4429.687067
4432.357529
4431.493456
4430.503287
4427.253103
4424.464654
4426.181554
4425.849237
4424.334703
4405.519246
4449.375208
4439.604692
4424.999840
4397.252070
4470.618750
4419.448545
4425.466473
4425.390837
4422.413968
4442.651681
4390.585050
4463.558535
4382.946040
4427.824709
4423.248304
4428.156988
4429.081990
4430.196452
4430.502794
4429.393907
4427.907461
4426.800406
4425.146343
4425.973860
4424.850634
4428.411851
4431.274659
4429.667864
4427.422641
4426.945494
4407.761561
4419.752662
4441.397336
4409.379237
4436.021509
4440.030046
4424.617294
4423.775020
4385.819418
4426.911031
4413.749764
4414.077199
4465.380878
4446.686440
4421.372835
4391.700868
4427.953948
4428.498365
4427.504856
4426.039831
4427.690647
4428.415155
4429.837257
4432.032799
4431.564737
4430.371846
4427.450936
4424.182915
4426.704175
4426.140331
4428.422674
4442.747836
4429.153988
4439.238977
4464.425967
4369.927414
4415.897522
4424.397259
4445.295093
4431.110170
4440.278796
4457.499257
4438.888048
4398.850549
4437.779925
4385.967139
4446.596971
4427.960317
4429.005048
4430.060956
4430.488298
4429.368708
4427.738919
4426.901122
4425.331032
4426.126004
4424.580469
4427.934801
4431.548475
4429.511618
4428.218484
4427.478907
4419.988366
4432.846021
4460.324000
4442.818391
4471.501574
4433.765176
4460.130565
4456.008848
4373.593400
4438.115992
4388.322673
4437.916108
4467.340566
4381.932618
4455.647940
4399.729548
4427.876630
4428.688489
4427.098575
4426.437226
4426.803775
4428.959277
4429.105283
4432.160838
4431.226886
4430.549233
4426.839661
4424.201879
4425.072872
4426.636892
4425.184632
4436.389053
4453.099464
4436.437849
4388.234880
4439.264520
4428.551467
4430.074778
4447.177593
4457.766314
4429.554411
4470.618218
4410.243532
4427.437491
4419.206116
4429.337656
4435.472509
4427.735646
4429.386328
4429.500704
4430.768146
4429.437862
4427.960114
4426.553836
4426.268948
4425.464941
4424.885539
4427.054764
4431.363141
4428.167922
4427.233358
4425.452959
4419.282251
4413.051388
4415.068143
4440.180774
4429.553285
4442.701668
4444.296795
4432.043780
4418.167074
4425.765967
4405.687817
4457.207564
4412.918977
4419.859627
4495.347482
4443.020199
4427.581749
4429.098726
4426.559548
4427.028988
4426.032726
4429.686952
4428.382038
4432.530488
4430.872085
4430.606307
4426.520061
4424.354311
4424.699271
4425.166956
4425.891771
4417.439117
4418.511133
4384.901331
4451.045891
4450.617516
4417.253761
4426.363373
4428.929425
4412.552839
4443.273538
4422.745249
4448.884397
4410.176863
4427.129158
4402.495909
4452.198816
4427.551744
4429.756002
4429.062906
4431.485230
4428.853623
4428.549278
4425.720605
4427.025376
4425.068306
4425.309859
4426.610766
4431.309619
4428.260434
4428.030405
4423.926494
4421.035341
4431.689850
4415.148286
4428.773749
4423.753566
4436.239794
4420.095013
4436.368108
4433.500712
4425.740286
4397.838789
4430.839865
4443.462682
4438.983808
4406.589725
4398.417697
4427.757548
4428.861905
4426.960108
4426.349155
4426.621856
4428.615846
4428.774737
4432.774347
4430.649048
4431.164321
4426.583198
4425.131044
4423.719496
4426.284973
4424.311483
4436.000045
4438.988384
4428.732173
4398.882536
4417.137609
4451.933433
4419.381432
4426.162631
4414.838774
4460.070457
4435.561545
4413.885851
4428.352607
4394.718517
4429.804473
4429.622269
4427.907066
4429.198246
4429.836082
4431.112596
4428.947302
4428.516549
4426.426402
4426.466939
4426.824562
4424.781155
4426.713166
4431.412932
4430.123339
4427.177890
4426.143056
4405.125387
4410.091519
4428.287423
4427.518577
4386.962617
4425.847771
4442.102802
4427.573859
4452.165993
4428.766256
4450.061911
4405.840496
4428.186491
4413.761348
4408.891762
4412.007517
4428.127299
4428.786504
4427.159887
4426.003336
4426.694754
4427.761260
4429.613677
4432.089577
4431.160567
4430.572279
4427.733437
4423.503663
4425.098004
4425.132763
4425.910756
4445.346993
4447.711236
4442.323001
4451.513325
4390.936479
4418.160392
4441.338495
4375.414544
4462.973310
4464.050061
4444.421486
4364.775394
4434.944175
4445.539345
4414.929338
4430.023953
4428.007651
4428.613948
4430.327345
4430.110046
4430.097374
4427.363646
4427.634950
4425.742330
4427.633032
4423.861231
4426.601558
4432.112383
4428.586839
4426.544728
4427.459002
4438.623509
4418.524313
4419.833011
4455.554059
4390.520292
4434.362228
4435.484293
4426.117740
4453.824356
4465.155097
4462.796740
4404.500568
4426.106471
4435.283145
4366.052222
4431.191919
4427.940367
4429.132935
4427.008793
4426.547569
4425.677636
4428.996008
4428.834502
4432.505671
4431.613509
4431.432999
4427.012824
4424.225074
4423.721156
4424.234159
4424.867147
4427.036261
4431.352696
4419.108096
4384.719158
4432.612296
4444.015596
4436.029807
4428.592888
4417.465058
4444.810942
4404.760796
4420.112979
4400.495610
4428.157057
4410.583391
4443.481586
4427.704776
4429.707002
4428.599194
4432.068098
4429.444597
4428.873104
4427.002223
4428.276677
4426.010917
4424.498663
4427.199444
4430.750558
4428.387893
4427.507275
4424.019487
4423.188733
4424.490011
4426.770711
4431.501224
4462.066830
4408.034074
4416.880120
4472.116991
4428.950963
4453.729482
4404.685843
4390.433072
4474.484183
4422.799949
4575.110001
4411.849771
4427.749950
4429.123060
4427.641290
4426.352205
4426.114549
4429.062726
4427.924174
4433.756685
4430.445913
4431.098375
4426.391502
4425.906524
4423.136287
4425.677939
4422.520757
4437.346157
4433.010878
4429.836654
4418.669567
4464.090726
4460.568379
4439.835285
4445.573818
4477.242256
4452.098699
4441.422975
4449.687754
4446.339837
4435.882131
4275.213192
4427.936912
4428.102902
4430.038245
4428.690807
4432.634998
4428.598589
4429.461865
4425.452974
4428.775885
4424.140883
4426.050908
4425.678162
4430.365512
4426.964214
4427.798630
4421.183247
4421.852438
4408.440128
4410.497869
4424.844106
4447.596287
4415.155908
4438.770709
4442.135862
4419.832785
4419.648423
4403.465957
4428.315379
4450.809504
4449.443815
4378.316772
4400.290020