# vtk DataFile Version 2.0
mfree iwf
ASCII

DATASET UNSTRUCTURED_GRID
POINTS 11907 float
-0.000000 0.000445 0.000000
-0.000000 0.000450 0.000000
-0.000000 0.000455 0.000000
-0.000000 0.000460 0.000000
-0.000000 0.000465 0.000000
-0.000000 0.000470 0.000000
-0.000000 0.000475 0.000000
-0.000000 0.000480 0.000000
-0.000000 0.000485 0.000000
0.000000 0.000490 0.000000
-0.000001 0.000496 0.000000
0.000002 0.000500 0.000000
0.001288 0.001052 0.000000
0.001296 0.001049 0.000000
0.001338 0.001027 0.000000
0.001342 0.001024 0.000000
0.001342 0.001024 0.000000
0.001348 0.001020 0.000000
0.001354 0.001016 0.000000
0.001350 0.001019 0.000000
0.001362 0.001011 0.000000
0.001384 0.000995 0.000000
0.001389 0.000989 0.000000
0.001391 0.000986 0.000000
0.001394 0.000982 0.000000
0.001397 0.000978 0.000000
0.001400 0.000974 0.000000
0.001402 0.000969 0.000000
0.001404 0.000966 0.000000
0.001408 0.000960 0.000000
0.001411 0.000956 0.000000
0.001428 0.000942 0.000000
0.000005 0.000445 0.000000
0.000005 0.000450 0.000000
0.000005 0.000455 0.000000
0.000005 0.000460 0.000000
0.000005 0.000465 0.000000
0.000005 0.000470 0.000000
0.000005 0.000475 0.000000
0.000005 0.000480 0.000000
0.000005 0.000485 0.000000
0.000006 0.000489 0.000000
0.000003 0.000496 0.000000
0.000006 0.000498 0.000000
0.001333 0.001029 0.000000
0.001335 0.001019 0.000000
0.001367 0.001005 0.000000
0.001373 0.001001 0.000000
0.001377 0.000998 0.000000
0.001379 0.000995 0.000000
0.001381 0.000993 0.000000
0.001383 0.000989 0.000000
0.001385 0.000986 0.000000
0.001389 0.000980 0.000000
0.001394 0.000974 0.000000
0.001397 0.000970 0.000000
0.001399 0.000963 0.000000
0.001405 0.000956 0.000000
0.001407 0.000952 0.000000
0.001411 0.000949 0.000000
0.001420 0.000943 0.000000
0.001422 0.000942 0.000000
0.001418 0.000946 0.000000
0.001426 0.000940 0.000000
0.000010 0.000445 0.000000
0.000010 0.000450 0.000000
0.000010 0.000455 0.000000
0.000010 0.000460 0.000000
0.000010 0.000465 0.000000
0.000010 0.000469 0.000000
0.000010 0.000475 0.000000
0.000010 0.000479 0.000000
0.000009 0.000486 0.000000
0.000012 0.000489 0.000000
0.000008 0.000497 0.000000
0.000011 0.000498 0.000000
0.001331 0.001025 0.000000
0.001338 0.001017 0.000000
0.001354 0.001011 0.000000
0.001361 0.001008 0.000000
0.001364 0.001005 0.000000
0.001369 0.001002 0.000000
0.001359 0.001002 0.000000
0.001366 0.000997 0.000000
0.001371 0.000993 0.000000
0.001376 0.000989 0.000000
0.001383 0.000982 0.000000
0.001387 0.000977 0.000000
0.001386 0.000971 0.000000
0.001390 0.000968 0.000000
0.001395 0.000966 0.000000
0.001402 0.000958 0.000000
0.001413 0.000946 0.000000
0.001414 0.000944 0.000000
0.001418 0.000938 0.000000
0.001419 0.000932 0.000000
0.000015 0.000445 0.000000
0.000016 0.000450 0.000000
0.000014 0.000456 0.000000
0.000017 0.000460 0.000000
0.000014 0.000469 0.000000
0.000016 0.000465 0.000000
0.000014 0.000476 0.000000
0.000017 0.000480 0.000000
0.000014 0.000484 0.000000
0.000016 0.000489 0.000000
0.000014 0.000495 0.000000
0.000016 0.000497 0.000000
0.000025 0.000500 0.000000
0.001342 0.001017 0.000000
0.001356 0.001009 0.000000
0.001350 0.001007 0.000000
0.001362 0.000999 0.000000
0.001372 0.000999 0.000000
0.001371 0.000990 0.000000
0.001378 0.000985 0.000000
0.001374 0.000983 0.000000
0.001380 0.000979 0.000000
0.001386 0.000965 0.000000
0.001390 0.000974 0.000000
0.001393 0.000959 0.000000
0.001398 0.000960 0.000000
0.001398 0.000954 0.000000
0.001402 0.000952 0.000000
0.001405 0.000946 0.000000
0.001408 0.000943 0.000000
0.001411 0.000939 0.000000
0.001417 0.000930 0.000000
0.000019 0.000445 0.000000
0.000021 0.000450 0.000000
0.000018 0.000455 0.000000
0.000022 0.000459 0.000000
0.000019 0.000469 0.000000
0.000024 0.000467 0.000000
0.000018 0.000475 0.000000
0.000022 0.000479 0.000000
0.000019 0.000486 0.000000
0.000021 0.000490 0.000000
0.000020 0.000497 0.000000
0.000022 0.000499 0.000000
0.000039 0.000500 0.000000
0.001335 0.001006 0.000000
0.001344 0.001010 0.000000
0.001350 0.001002 0.000000
0.001356 0.001005 0.000000
0.001365 0.000992 0.000000
0.001362 0.000988 0.000000
0.001373 0.000980 0.000000
0.001365 0.000986 0.000000
0.001376 0.000974 0.000000
0.001374 0.000966 0.000000
0.001379 0.000961 0.000000
0.001384 0.000959 0.000000
0.001392 0.000953 0.000000
0.001396 0.000944 0.000000
0.001402 0.000943 0.000000
0.001404 0.000940 0.000000
0.001411 0.000934 0.000000
0.001414 0.000934 0.000000
0.001413 0.000927 0.000000
0.000024 0.000445 0.000000
0.000026 0.000450 0.000000
0.000024 0.000455 0.000000
0.000026 0.000461 0.000000
0.000021 0.000464 0.000000
0.000026 0.000473 0.000000
0.000022 0.000476 0.000000
0.000027 0.000481 0.000000
0.000023 0.000485 0.000000
0.000026 0.000489 0.000000
0.000026 0.000492 0.000000
0.000027 0.000500 0.000000
0.001315 0.001040 0.000000
0.001344 0.001013 0.000000
0.001348 0.001012 0.000000
0.001360 0.000994 0.000000
0.001356 0.000997 0.000000
0.001370 0.000987 0.000000
0.001368 0.000980 0.000000
0.001358 0.000990 0.000000
0.001364 0.000977 0.000000
0.001382 0.000975 0.000000
0.001380 0.000969 0.000000
0.001381 0.000972 0.000000
0.001390 0.000963 0.000000
0.001390 0.000958 0.000000
0.001399 0.000947 0.000000
0.001395 0.000949 0.000000
0.001406 0.000936 0.000000
0.001399 0.000938 0.000000
0.001407 0.000930 0.000000
0.001408 0.000924 0.000000
0.000030 0.000445 0.000000
0.000031 0.000450 0.000000
0.000029 0.000455 0.000000
0.000031 0.000459 0.000000
0.000031 0.000464 0.000000
0.000028 0.000468 0.000000
0.000031 0.000472 0.000000
0.000030 0.000477 0.000000
0.000030 0.000486 0.000000
0.000031 0.000492 0.000000
0.000033 0.000497 0.000000
0.000030 0.000499 0.000000
0.000048 0.000500 0.000000
0.001333 0.001014 0.000000
0.001344 0.001000 0.000000
0.001351 0.000997 0.000000
0.001348 0.000997 0.000000
0.001354 0.000992 0.000000
0.001358 0.000980 0.000000
0.001370 0.000968 0.000000
0.001371 0.000976 0.000000
0.001373 0.000971 0.000000
0.001381 0.000964 0.000000
0.001381 0.000950 0.000000
0.001386 0.000954 0.000000
0.001387 0.000950 0.000000
0.001390 0.000940 0.000000
0.001392 0.000947 0.000000
0.001396 0.000934 0.000000
0.001402 0.000933 0.000000
0.001404 0.000928 0.000000
0.001405 0.000921 0.000000
0.000035 0.000445 0.000000
0.000035 0.000450 0.000000
0.000034 0.000457 0.000000
0.000038 0.000454 0.000000
0.000035 0.000467 0.000000
0.000037 0.000472 0.000000
0.000032 0.000479 0.000000
0.000041 0.000479 0.000000
0.000034 0.000483 0.000000
0.000034 0.000488 0.000000
0.000037 0.000491 0.000000
0.000036 0.000498 0.000000
0.001275 0.001054 0.000000
0.001311 0.001043 0.000000
0.001340 0.001005 0.000000
0.001343 0.000994 0.000000
0.001356 0.000984 0.000000
0.001345 0.000985 0.000000
0.001363 0.000982 0.000000
0.001360 0.000975 0.000000
0.001367 0.000973 0.000000
0.001358 0.000967 0.000000
0.001365 0.000958 0.000000
0.001376 0.000953 0.000000
0.001380 0.000955 0.000000
0.001383 0.000947 0.000000
0.001394 0.000939 0.000000
0.001383 0.000931 0.000000
0.001395 0.000926 0.000000
0.001398 0.000930 0.000000
0.001401 0.000925 0.000000
0.001400 0.000918 0.000000
0.000040 0.000445 0.000000
0.000041 0.000450 0.000000
0.000036 0.000461 0.000000
0.000040 0.000458 0.000000
0.000041 0.000463 0.000000
0.000039 0.000468 0.000000
0.000041 0.000473 0.000000
0.000037 0.000477 0.000000
0.000041 0.000488 0.000000
0.000042 0.000491 0.000000
0.000041 0.000497 0.000000
0.000044 0.000498 0.000000
0.001121 0.001032 0.000000
0.001331 0.001021 0.000000
0.001332 0.001010 0.000000
0.001338 0.000992 0.000000
0.001351 0.000988 0.000000
0.001351 0.000982 0.000000
0.001353 0.000983 0.000000
0.001363 0.000969 0.000000
0.001368 0.000962 0.000000
0.001374 0.000961 0.000000
0.001365 0.000966 0.000000
0.001365 0.000947 0.000000
0.001375 0.000944 0.000000
0.001380 0.000939 0.000000
0.001386 0.000944 0.000000
0.001385 0.000940 0.000000
0.001390 0.000935 0.000000
0.001392 0.000929 0.000000
0.001396 0.000922 0.000000
0.001396 0.000916 0.000000
0.000044 0.000445 0.000000
0.000046 0.000450 0.000000
0.000044 0.000455 0.000000
0.000046 0.000461 0.000000
0.000044 0.000467 0.000000
0.000046 0.000473 0.000000
0.000046 0.000478 0.000000
0.000039 0.000483 0.000000
0.000051 0.000485 0.000000
0.000045 0.000483 0.000000
0.000048 0.000493 0.000000
0.000050 0.000498 0.000000
0.001127 0.001035 0.000000
0.001329 0.001031 0.000000
0.001345 0.001004 0.000000
0.001347 0.000990 0.000000
0.001343 0.000988 0.000000
0.001355 0.000975 0.000000
0.001351 0.000972 0.000000
0.001358 0.000970 0.000000
0.001357 0.000961 0.000000
0.001369 0.000957 0.000000
0.001374 0.000956 0.000000
0.001379 0.000944 0.000000
0.001371 0.000949 0.000000
0.001377 0.000939 0.000000
0.001386 0.000935 0.000000
0.001386 0.000928 0.000000
0.001386 0.000925 0.000000
0.001391 0.000923 0.000000
0.001392 0.000919 0.000000
0.001392 0.000913 0.000000
0.000049 0.000445 0.000000
0.000053 0.000450 0.000000
0.000049 0.000454 0.000000
0.000052 0.000455 0.000000
0.000048 0.000465 0.000000
0.000049 0.000472 0.000000
0.000052 0.000467 0.000000
0.000051 0.000478 0.000000
0.000047 0.000488 0.000000
0.000052 0.000491 0.000000
0.000057 0.000492 0.000000
0.000053 0.000498 0.000000
0.001218 0.001058 0.000000
0.001320 0.001029 0.000000
0.001329 0.001017 0.000000
0.001338 0.000995 0.000000
0.001343 0.000981 0.000000
0.001350 0.000977 0.000000
0.001345 0.000977 0.000000
0.001348 0.000971 0.000000
0.001353 0.000960 0.000000
0.001362 0.000962 0.000000
0.001358 0.000957 0.000000
0.001367 0.000952 0.000000
0.001365 0.000942 0.000000
0.001374 0.000949 0.000000
0.001375 0.000934 0.000000
0.001375 0.000926 0.000000
0.001380 0.000932 0.000000
0.001384 0.000920 0.000000
0.001388 0.000916 0.000000
0.001388 0.000910 0.000000
0.000053 0.000445 0.000000
0.000058 0.000451 0.000000
0.000055 0.000462 0.000000
0.000050 0.000460 0.000000
0.000060 0.000466 0.000000
0.000053 0.000473 0.000000
0.000057 0.000476 0.000000
0.000057 0.000480 0.000000
0.000052 0.000483 0.000000
0.000057 0.000486 0.000000
0.000056 0.000497 0.000000
0.000059 0.000496 0.000000
0.001241 0.001057 0.000000
0.001329 0.001032 0.000000
[...]
POINT_DATA 11907
SCALARS density float 1
LOOKUP_TABLE default
4427.720545
4430.279164
4425.389738
4428.913090
4431.959340
4426.644990
4436.040968
4427.849721
4430.985202
4419.763831
4429.494377
4406.169628
4427.401354
4419.458238
4415.356061
4440.341348
4437.922195
4434.468824
4454.739726
4453.780356
4425.092959
4419.676612
4399.798371
4445.028267
4424.018524
4428.505123
4450.611063
4420.730265
4432.049301
4447.270927
4428.073992
4407.946551
4431.394323
4432.162325
4430.603437
4426.307429
4431.910558
4421.216403
4426.684063
4422.161437
4424.277102
4431.770058
4448.920944
4409.165451
4410.724314
4417.746052
4422.676353
4411.899741
4422.129838
4430.653959
4443.201036
4461.455111
4435.052768
4430.592191
4427.990296
4395.593811
4447.586505
4399.710946
4439.262197
4460.325314
4422.126088
4439.196779
4402.602633
4403.888470
4421.039814
4425.856611
4432.364988
4421.861632
4432.145076
4422.777926
4455.731477
4397.918183
4465.866076
4382.745098
4447.432374
4402.735366
4472.308988
4444.748630
4431.602547
4397.122375
4418.457439
4411.293068
4467.517685
4458.095977
4440.745696
4388.919064
4425.604221
4417.542196
4398.576345
4470.010324
4406.764575
4389.148688
4425.057631
4429.520712
4445.946994
4413.846596
4424.711951
4439.342621
4446.165578
4417.053710
4419.131586
4449.629294
4449.911871
4390.447813
4466.170750
4389.659839
4508.617136
4406.742133
4434.673500
4402.645642
4416.888642
4475.635676
4444.087203
4429.311889
4445.141499
4380.539932
4433.226303
4415.572963
4399.538834
4435.760097
4427.085514
4452.241805
4433.039248
4481.341842
4428.871565
4365.796940
4489.671085
4439.768297
4436.013638
4422.606722
4440.673308
4432.632367
4402.987973
4435.469165
4437.184458
4434.956107
4477.293609
4370.364312
4460.869902
4433.017224
4417.290232
4445.275939
4475.724655
4373.045514
4463.377349
4393.003390
4447.473246
4442.982254
4443.807302
4385.110714
4408.643712
4441.735953
4419.042659
4413.783535
4426.325372
4474.759660
4451.778570
4416.281896
4390.237354
4418.262368
4434.037391
4431.657582
4441.925643
4414.595320
4439.274743
4422.788092
4452.342168
4379.649161
4421.280397
4463.751793
4428.074517
4423.332101
4433.533006
4423.175576
4359.332716
4436.522559
4401.786557
4443.066055
4381.620865
4459.107707
4481.389990
4467.427459
4437.238911
4452.269798
4448.705424
4450.108197
4368.499707
4438.859304
4408.267311
4395.824085
4463.402055
4423.635724
4423.565608
4431.358167
4414.106544
4438.630002
4435.335170
4445.499778
4399.515830
4449.627475
4442.611508
4405.174813
4449.115573
4418.347136
4417.801004
4444.926473
4465.040096
4465.522165
4422.254063
4428.221673
4416.773919
4437.110706
4457.583398
4449.100702
4444.604018
4433.853943
4448.745499
4392.790029
4416.588593
4449.931566
4459.013420
4417.836234
4422.850880
4444.696553
4424.067793
4435.036825
4440.855843
4435.153870
4428.386097
4437.813723
4440.818287
4430.779456
4411.071862
4428.310527
4427.192972
4443.702679
4415.947781
4428.215157
4380.826674
4388.434825
4420.126583
4453.321759
4432.583333
4445.511842
4400.131220
4470.324929
4432.635073
4433.082412
4401.684273
4454.152728
4430.135155
4421.599581
4467.943612
4414.238279
4403.507568
4410.317431
4431.423635
4419.751955
4416.187934
4431.774836
4432.470829
4436.142916
4434.105376
4425.790522
4440.858661
4430.089846
4434.962453
4420.697915
4434.523886
4456.368164
4409.398564
4443.158567
4392.366577
4440.254178
4481.710364
4431.133178
4432.266589
4419.521586
4447.907159
4426.067724
4402.446971
4426.893179
4418.328484
4429.387290
4448.577640
4366.079008
4447.100844
4430.599607
4433.621421
4413.356554
4422.360486
4448.296866
4413.494723
4435.717913
4433.265830
4428.015716
4454.074947
4429.759970
4470.876541
4432.951979
4434.325260
4437.506481
4405.828645
4442.839515
4450.567768
4403.717614
4473.867899
4438.613035
4448.967466
4444.276773
4416.507955
4430.471886
4451.515380
4457.556827
4423.165187
4469.137951
4430.128907
4417.050624
4420.723805
4452.325297
4424.927643
4415.056613
4460.119321
4403.189898
4439.564654
4455.716454
4390.946188
4383.967101
4393.616807
4427.580620
4518.195807
4412.396633
4441.462602
4427.480039
4402.296644
4461.027849
4411.660525
4413.172199
4406.721541
4440.195273
4416.200878
4388.946778
4425.980792
4404.570467
4399.352623
4429.612821
4414.299989
4440.621733
4424.817833
4438.957026
4403.131347
4424.508376
4440.455612
4425.732765
4490.500384
4404.154732
4407.440749
4450.108243
4423.951175
4425.736763
4465.470331
4352.819563
4415.896419
4405.642635
4435.234736
4427.197520
4439.055106
4410.369989
4408.453998
4456.085621
4368.814402
4399.927175
4443.946645
4414.512254
4427.950666
4441.534223
4446.911224
4428.068459
4473.173077
4390.045834
4424.038735
4454.514682
4427.248653
4426.518449
4420.178371
4405.124283
4460.993829
4414.460433
4368.947023
4450.904064
4430.092213
4383.378251
4440.825862
4418.642270
4446.195035
4436.024726
4424.808416
4428.899920
4417.690204
4383.615870
4402.509488
4447.324666
4428.381017
4470.116907
4457.797171
4435.652466
4439.257920
4428.023769
4431.116077
4443.742909
4453.466743
4395.537609
4432.122411
4402.101705
4439.050678
4433.478608
4446.142027
4437.922107
4443.564425
4443.506280
4449.337754
4424.009766
4397.817873
4467.315512
4476.936833
4412.519073
4419.075643
4440.017070
4417.337608
4429.713573
4399.321827
4367.506012
4453.778385
4384.839882
4465.393707
4383.430024
4426.033424
4447.715494
4459.686313
4422.148064
4436.727582
4436.255229
4412.485809
4420.014711
4445.968627
4447.890863
4423.678321
4419.549621
4416.559504
4439.288284
4439.348763
4463.250468
4395.109722
4393.245554
4397.977146
4436.661599
4384.479907
4445.698228
4438.460845
4454.497474
4429.100685
4439.067372
4424.020530
4458.578375
4428.554374
4430.652985
4444.926114
4457.722081
4378.449626
4423.441828
4429.907710
4428.571722
4459.645208
4411.043274
4449.324435
4420.061684
4423.666652
4409.732967
4440.142733
4435.151263
4431.741089
4437.153750
4402.501697
4453.239941
4408.120206
4456.566241
4449.961041
4446.058829
4446.881898
4381.235696
4396.753486
4451.993312
4427.053253
4430.984190
4433.057310
4444.082605
4442.349385
4431.026840
4389.366850
4436.619420
4389.793068
4406.314541
4433.159210
4426.884128
4403.273337
4436.042731
4419.398006
4428.749889
4454.042354
4399.895639
4440.105222
4420.098412
4431.671056
4436.056224
4438.285343
4408.176060
4460.500672
4378.447869
4441.021876
4446.422229
4421.638133
4378.576121
4419.132031
4425.938490
4421.475689
4422.405602
4432.655562
4441.202869
4468.437828
4397.303565
4406.724459
4445.687545
4416.573826
4457.680687
4400.388006
4474.343586
4409.750874
4423.525500
4446.336386
4405.067818
4429.680146
4437.578100
4430.814402
4439.810568
4438.423162
4427.018253
4438.225574
4429.388146
4464.862821
4389.244145
4434.568947
4441.923711
4377.165034
4503.467450
4436.575534
4452.117441
4428.795488
4428.356967
4445.440988
4438.527824
4474.441726
4410.073222
4491.477528
4489.851665
4434.598022
4449.988068
4426.539021
4411.078456
4442.882303
4402.673831
4422.878397
4444.095245
4438.737234
4438.989671
4428.078220
4427.015573
4404.749446
4421.506153
4442.113792
4428.077996
4456.555702
4467.007769
4462.994072
4461.697344
4445.636432
4438.061796
4399.525199
4427.089259
4421.183797
4419.946373
4430.820748
4450.905509
4419.507691
4435.512373
4425.250274
4428.353183
4428.433833
4451.406340
4456.487230
4381.646058
4445.893942
4433.361866
4433.378456
4426.808293
4427.447627
4406.672168
4429.107670
4430.883105
4457.909147
4410.653895
4421.866085
4426.769276
4409.853335
4391.097384
4436.214216
4435.396199
4446.759311
4424.562173
4423.742823
4435.495436
4422.008805
4441.867652
4445.431433
4476.712436
4434.788429
4470.734283
4430.533210
4434.234856
4483.186735
4425.594552
4396.069063
4413.131005
4400.837562
4420.037043
4431.997574
4429.938797
4425.177633
4442.318178
4443.416980
4435.226303
4433.817338
4440.892081
4435.526306
4425.099394
4429.017708
4436.941031
4385.935689
4394.994942
4467.986766
4463.823742
4402.588770
4484.068453
4423.072299
4414.096500
4422.908012
4476.013243
4438.722766
4426.386736
4356.094773
4441.342937
4397.133736
4449.963145
4477.398489
4429.105096
4475.232444
4456.249677
4447.374127
4422.738633
4445.239954
4413.555979
4415.391286
4432.593941
4441.641849
4425.514040
4454.385809
4404.909937
4434.016682
4402.979141
4441.234513
4427.920553
4441.198496
4374.570265
4430.836250
4435.773509
4436.250615
4418.530181
4436.082124
4436.447842
4450.253482
4423.762103
4455.801992
4433.052661
4431.308131
4352.212982
4467.547539
4447.473214
4439.822298
4418.054530
4409.947937
4445.522170
4409.452453
4437.432408
4436.846845
4435.852380
4411.252460
4438.863937
4422.584966
4420.243283
4457.636482
4423.550915
4441.662674
4460.235974
4442.278199
4419.605705
4418.178994
4449.578111
4433.395829
4459.044392
4382.343321
4452.681438
4433.378118
4439.679789
4427.301587
4446.374101
4450.434877
4395.301458
4351.852275
4484.164481
4423.872267
4413.601785
4393.655041
4425.355464
4431.864005
4433.304789
4419.524457
4423.074193
4434.410460
4420.424687
4432.779754
4431.077022
4414.390922
4420.414680
4395.494597
4398.612663
4412.064195
4441.021349
4430.287868
4428.346933
4456.467923
4421.956358
4439.983524
4399.545150
4352.284504
4393.281238
4422.696861
4381.074531
4373.748534
4448.323361
4440.500179
4380.762953
4439.732355
4421.809221
4423.242495
4428.463348
4417.346841
4449.754933
4444.169565
4422.560524
4429.265273
4430.606426
4430.894075
4431.065313
4430.892060
4430.361707
4429.948601
4429.506971
4429.634722
4430.338669
4431.536653
4432.025981
4431.726013
4431.298224
4430.669801
4429.879167
4430.355209
4429.240828
4429.011938
4429.647551
4430.806895
4432.307880
4433.392086
4433.752791
4432.275989
4429.744727
4428.389238
4429.001593
4430.445730
4430.859089
4430.001594
4430.375307
4431.580352
4432.142260
4431.721561
4430.339622
4428.934922
4427.459991
4427.333611
4428.691238
4432.038650
4433.525217
4432.178924
4430.598397
4428.787443
4430.470602
4430.100200
4428.905717
4428.405439
4428.840880
4430.381726
4431.873987
4433.722739
4433.742434
4432.460735
4428.912889
4426.814465
4427.183186
4428.754626
4429.161375
4430.270443
4430.005095
4431.581287
4432.062507
4431.651478
4430.116010
4428.611895
4426.601909
4426.673346
4427.809909
4431.347645
4433.226398
4432.447186
4429.456632
4429.938677
4430.218250
4429.760363
4429.029431
4427.543260
4429.080638
4429.440809
4432.062331
4432.730291
4434.149755
4431.024345
4429.593807
4425.429553
4428.099733
4428.356310
4429.687560
4430.033798
4429.792739
4431.496247
4431.819351
4431.508001
4429.734330
4428.355360
4426.168700
4426.244285
4427.566497
4430.536266
4432.970380
4431.887601
4428.898311
4428.500966
4429.905077
4429.792713
4428.624735
4427.693164
4428.314885
4429.769964
4431.112353
4433.070413
4433.115670
4431.351515
4428.592357
4425.489238
4426.549103
4427.975617
4429.196222
4429.315843
4430.037900
4430.831797
4431.878628
4431.227690
4429.486527
4428.100105
4425.832943
4426.030112
4427.054961
4430.291538
4432.625503
4431.866363
4429.568493
4429.383959
4429.670982
4429.658638
4428.426312
4427.499087
4428.083934
4429.514186
4430.902372
4432.673098
4432.814088
4430.963923
4428.325467
4425.205588
4426.866219
4427.641043
4429.950222
4429.285506
4429.757428
4430.907069
4431.627028
4430.913211
4429.486814
4427.417718
4425.997987
4425.690028
4426.745730
4429.873317
4432.160420
4430.887172
4427.590259
4423.907776
4429.479887
4429.618608
4428.169796
4427.242543
4427.956327
4429.015352
4430.993229
4432.200953
4432.687161
4430.831099
4427.787976
4425.149419
4425.383457
4426.887165
4427.992956
4429.120986
4429.493952
4430.842679
4431.379578
4430.727713
4429.275251
4427.293548
4425.736358
4425.814410
4426.405417
4429.757676
4432.448189
4431.196622
4428.631563
4428.803531
4449.613960
4442.377662
4414.130788
4448.893703
4450.442717
4461.658851
4431.227223
4421.053200
4410.566319
4461.611040
4462.083485
4399.749132
4456.495191
4481.053541
4428.716753
4415.913405
4429.215525
4429.373701
4428.261325
4426.648027
4428.068707
4428.608397
4430.891942
4432.044025
4432.335427
4430.562109
4428.537021
4424.358967
4427.979115
4428.378691
4430.201951
4440.319931
4410.818181
4428.303325
4425.677896
4410.951443
4442.726612
4439.151157
4447.023591
4393.768365
4385.625578
4440.536700
4414.118155
4432.827845
4374.776644
4470.519278
4406.964969
4428.676335
4429.349733
4430.600598
4431.116101
4430.779139
4428.716988
4427.708752
4425.009609
4426.503619
4425.937333
4429.565965
4432.952839
4430.910247
4428.445400
4430.127342
4441.605098
4451.957099
4424.705216
4442.482774
4399.729017
4447.323502
4410.515529
4428.087295
4411.729725
4443.525035
4459.592239
4424.539659
4420.480688
4450.111250
4415.642020
4415.626154
4428.982610
4429.429230
4427.942304
4426.709728
4427.586581
4429.050036
4430.138860
4432.504670
4431.139577
4431.048868
4428.283914
4424.142069
4427.633572
4426.973036
4428.796501
4447.534681
4429.238973
4429.917457
4404.424925
4397.817759
4446.763360
4437.827948
4414.391451
4427.594542
4425.949070
4424.001605
4433.678585
4396.993605
4414.265278
4434.215353
4452.364796
4428.575021
4429.591518
4430.068731
4431.390817
4430.348996
4429.045791
4427.227308
4425.380805
4426.136148
4425.870521
4429.013438
4433.167442
4429.872148
4428.485112
4428.011344
4442.381492
4442.930875
4421.395105
4465.708173
4423.375467
4438.062434
4438.322371
4476.365660
4438.947849
4448.220425
4399.672751
4434.202734
4446.611625
4411.914085
4435.519869
4419.945720
4428.603588
4429.463555
4427.678128
4426.914017
4427.180782
4429.342669
4429.911708
4432.439442
4430.835813
4430.912713
4428.126518
4424.445621
4427.254491
4427.721183
4425.998234
4437.235507
4452.350581
4434.978548
4388.904577
4483.246991
4400.691825
4422.296765
4447.078129
4475.471680
4392.740629
4443.210380
4437.118958
4411.964308
4418.204399
4453.662369
4420.058632
4428.644622
4429.700501
4429.821413
4431.435505
4430.149347
4429.207028
4426.773240
4426.029403
4425.792764
4426.285927
4428.307818
4433.532008
4428.854705
4429.525811
4428.171818
4434.810124
4438.789765
4449.891417
4443.420753
4336.532936
4437.689884
4425.840777
4425.546147
4399.925080
4446.165775
4460.275665
4461.354873
4448.265256
4406.848848
4475.404428
4418.924651
4428.456806
4429.382902
4427.545954
4426.851890
4426.982612
4429.151292
4429.818703
4432.330625
4430.694846
4430.955041
4428.252144
4424.854648
4427.388133
4427.840070
4426.756844
4421.013718
4405.806089
4370.956889
4382.666931
4393.338577
4483.202257
4436.454570
4423.168571
4424.843385
4440.967609
4429.379425
4376.158702
4403.468836
4381.126988
4464.132238
4415.888319
4428.526025
4429.350065
4430.007780
4430.922480
4430.423122
4428.593529
4427.168368
4425.752473
4426.822306
4425.655907
4428.919508
4433.175918
4430.503906
4429.297974
4428.773392
4433.761776
4441.511855
4390.480341
4406.422036
4442.664860
4435.104413
4430.208182
4425.721675
4486.997575
4455.151506
4375.730219
4402.605867
4452.842413
4391.430839
4433.587006
4407.967426
4428.464873
4428.987663
4427.855758
4426.368654
4427.336061
4428.524298
4430.096994
4431.858445
4430.934651
4430.646039
4428.471379
4424.904544
4427.783551
4427.188479
4429.387080
4444.875776
4430.358066
4436.698105
4447.605368
4377.266124
4417.480296
4429.131759
4438.816185
4380.913222
4443.385537
4456.738865
4502.559677
4412.114057
4393.801225
4426.160975
4444.421775
4428.385769
4429.263415
4429.825995
4430.829728
4430.361207
4428.447826
4427.107421
4426.115245
4426.994512
4425.451929
4428.533119
4433.078276
4430.459610
4429.184484
4427.750611
4422.211985
4445.569935
4409.541062
4448.286415
4454.071574
4435.389017
4452.109670
4471.517915
4423.499837
4444.454859
4431.898382
4438.307955
4465.101012
4395.767375
4461.910133
4410.153218
4428.324971
4429.178958
4427.473200
4426.885791
4426.622138
4429.101709
4429.390092
4431.973992
4430.580034
4430.543116
4427.802536
4424.760714
4425.934603
4426.585091
4424.763479
4427.337182
4478.690018
4451.380055
4380.072231
4449.789043
4425.363782
4445.884653
4416.882918
4459.724023
4435.475449
4416.948823
4419.759509
4448.670584
4420.109867
4415.424304
4417.836125
4428.218484
4429.535035
4429.285023
4431.099944
4430.324678
4428.401748
4426.993965
4426.733469
4426.482845
4425.663388
4427.561039
4432.797040
4428.790748
4427.814581
4425.634830
4428.652129
4421.355706
4435.831352
4434.212955
4406.660951
4442.667718
4448.425258
4432.878378
4427.073433
4435.018414
4455.116971
4403.946500
4422.519370
4377.478425
4467.501728
4444.998331
4428.109282
4429.298257
4427.345472
4427.101263
4426.334852
4429.466554
4429.033133
4432.009145
4430.177840
4430.449705
4427.355973
4424.857840
4425.557821
4426.066819
4426.922851
4407.125672
4449.715562
4398.556015
4433.505725
4451.335387
4430.186107
4429.637783
4424.454998
4407.565845
4449.278881
4422.920799
4409.411829
4381.613855
4437.063831
4388.345863
4446.620536
4428.054321
4429.649928
4429.015858
4431.420163
4429.926931
4428.516618
4426.720409
4427.258236
4426.398677
4425.854402
4427.375306
4432.367070
4429.017791
4427.633465
4425.436245
4434.374668
4419.250346
4409.499175
4449.825614
4387.886677
4404.931338
4423.621842
4447.061971
4445.301020
4424.367739
4431.036524
4404.214286
4448.510598
4474.818790
4416.153067
4402.066147
4428.283968
4429.152467
4427.603477
4426.738983
4426.785773
4428.702651
4429.299405
4432.143160
4430.038397
4430.497740
4427.621997
4425.318347
4425.644916
4425.963736
4424.833121
4422.575436
4410.786977
4428.498616
4416.805626
4415.952065
4441.951031
4421.217642
4429.742215
4420.593545
4448.682893
4505.363402
4386.707242
4437.018297
4430.080062
4446.846669
4428.038343
4428.246335
4429.279864
4429.458277
4431.034500
4429.908928
4428.391286
4427.040694
4427.027965
4427.499457
4425.679961
4427.117701
4432.755231
4429.651088
4427.906040
4427.033494
4435.712074
4420.619420
4443.329238
4438.131852
4393.540729
4430.292505
4452.853741
4436.405934
4455.210628
4406.581904
4477.000543
4430.432933
4408.970437
4425.324634
4393.730344
4424.424340
4428.583336
4429.203575
4427.628831
4426.842508
4426.664218
4428.497309
4429.400256
4431.984356
4430.346885
4430.026352
4428.326143
4424.917079
4426.481928
4425.572174
4426.074632
4450.574358
4453.006353
4430.056773
4451.743860
4382.088690
4417.256597
4443.468380
4384.072275
4468.156710
4442.218724
4447.031323
4461.536821
4447.401640
4436.785884
4405.382735
4412.409529
4428.343019
4428.997994
4429.594348
4430.535681
4430.651312
4427.532957
4427.847157
4426.812639
4428.121382
4425.087428
4427.355257
4433.142498
4428.618540
4427.020114
4426.684351
4443.023718
4442.388471
4395.929362
4463.067231
4389.949492
4435.873322
4437.532904
4432.137914
4466.902376
4451.008364
4472.888747
4406.483092
4407.577198
4462.739427
4368.128835
4426.662562
4428.422823
4429.541134
4427.463645
4427.323626
4426.022134
4429.653980
4428.796657
4431.993412
4430.973573
4430.361180
4427.518614
4425.652897
4425.291807
4424.658529
4424.938291
4422.515275
4425.335278
4417.860073
4392.184510
4435.174015
4441.732393
4444.794360
4415.894084
4386.059839
4446.870417
4402.399405
4436.731783
4439.637068
4404.289994
4397.361955
4444.096697
4428.278942
4429.555643
4428.506808
4431.759453
4430.214665
4428.542483
4427.471782
4428.852834
4426.742262
4425.490972
4428.234841
4431.740311
4428.388442
4427.774966
4425.652196
4422.319121
4406.698659
4425.256018
4426.755978
4458.561192
4415.541124
4435.287180
4500.235902
4416.890019
4398.477770
4430.126559
4401.790705
4478.887876
4420.374732
4559.613474
4412.647522
4428.382000
4429.338537
4428.127859
4426.961424
4426.792865
4429.175094
4428.671252
4432.374545
4430.812402
4429.856556
4427.260568
4427.190476
4425.643493
4426.263932
4422.771775
4441.651018
4422.977608
4439.808835
4432.394572
4465.652348
4463.621462
4441.211494
4447.904107
4472.784772
4437.768267
4440.492349
4440.554769
4451.642300
4441.575805
4278.456464
4427.787016
4428.660292
4429.735032
4428.558508
4431.771161
4429.719374
4428.532104
4426.777155
4429.157097
4426.061838
4426.783284
4428.065157
4431.117944
4427.631909
4427.780855
4424.575159
4424.430154
4372.255488
4376.764512
4401.009347
4444.272354
4412.672036
4437.492699
4441.551387
4442.688739
4432.850496
4400.942795
4448.425414
4441.187706
4426.949932
4385.587682
4405.280804