# vtk DataFile Version 2.0
mfree iwf
ASCII

DATASET UNSTRUCTURED_GRID
POINTS 11748 float
-0.000000 0.000445 0.000000
-0.000000 0.000450 0.000000
-0.000000 0.000455 0.000000
-0.000000 0.000460 0.000000
-0.000000 0.000465 0.000000
-0.000000 0.000470 0.000000
-0.000000 0.000475 0.000000
-0.000000 0.000480 0.000000
0.000000 0.000485 0.000000
0.000000 0.000490 0.000000
-0.000000 0.000496 0.000000
0.000002 0.000500 0.000000
0.001137 0.001013 0.000000
0.001146 0.001011 0.000000
0.001190 0.000994 0.000000
0.001194 0.000991 0.000000
0.001194 0.000991 0.000000
0.001201 0.000988 0.000000
0.001207 0.000984 0.000000
0.001203 0.000987 0.000000
0.001216 0.000980 0.000000
0.001240 0.000967 0.000000
0.001244 0.000962 0.000000
0.001247 0.000959 0.000000
0.001251 0.000955 0.000000
0.001254 0.000951 0.000000
0.001257 0.000948 0.000000
0.001260 0.000943 0.000000
0.001262 0.000940 0.000000
0.001267 0.000935 0.000000
0.001271 0.000931 0.000000
0.001289 0.000918 0.000000
0.000005 0.000445 0.000000
0.000005 0.000450 0.000000
0.000005 0.000455 0.000000
0.000005 0.000460 0.000000
0.000005 0.000465 0.000000
0.000005 0.000470 0.000000
0.000005 0.000475 0.000000
0.000005 0.000480 0.000000
0.000005 0.000485 0.000000
0.000006 0.000490 0.000000
0.000003 0.000496 0.000000
0.000006 0.000499 0.000000
0.001185 0.000995 0.000000
0.001188 0.000986 0.000000
0.001221 0.000975 0.000000
0.001227 0.000972 0.000000
0.001232 0.000969 0.000000
0.001235 0.000967 0.000000
0.001236 0.000965 0.000000
0.001239 0.000961 0.000000
0.001242 0.000958 0.000000
0.001246 0.000953 0.000000
0.001252 0.000947 0.000000
0.001255 0.000943 0.000000
0.001258 0.000937 0.000000
0.001265 0.000931 0.000000
0.001267 0.000927 0.000000
0.001271 0.000924 0.000000
0.001281 0.000919 0.000000
0.001283 0.000918 0.000000
0.001279 0.000921 0.000000
0.001287 0.000916 0.000000
0.000010 0.000445 0.000000
0.000010 0.000450 0.000000
0.000009 0.000455 0.000000
0.000010 0.000460 0.000000
0.000010 0.000465 0.000000
0.000010 0.000469 0.000000
0.000010 0.000475 0.000000
0.000011 0.000479 0.000000
0.000009 0.000486 0.000000
0.000012 0.000489 0.000000
0.000008 0.000497 0.000000
0.000011 0.000498 0.000000
0.001184 0.000991 0.000000
0.001192 0.000984 0.000000
0.001207 0.000980 0.000000
0.001215 0.000977 0.000000
0.001218 0.000975 0.000000
0.001223 0.000973 0.000000
0.001214 0.000971 0.000000
0.001221 0.000967 0.000000
0.001227 0.000964 0.000000
0.001232 0.000961 0.000000
0.001240 0.000954 0.000000
0.001245 0.000950 0.000000
0.001244 0.000943 0.000000
0.001249 0.000941 0.000000
0.001253 0.000939 0.000000
0.001262 0.000933 0.000000
0.001273 0.000922 0.000000
0.001275 0.000920 0.000000
0.001280 0.000914 0.000000
0.001281 0.000908 0.000000
0.000014 0.000445 0.000000
0.000016 0.000450 0.000000
0.000014 0.000456 0.000000
0.000017 0.000460 0.000000
0.000014 0.000469 0.000000
0.000015 0.000465 0.000000
0.000014 0.000476 0.000000
0.000017 0.000480 0.000000
0.000014 0.000485 0.000000
0.000016 0.000489 0.000000
0.000014 0.000495 0.000000
0.000016 0.000497 0.000000
0.000025 0.000500 0.000000
0.001195 0.000984 0.000000
0.001210 0.000978 0.000000
0.001204 0.000975 0.000000
0.001217 0.000969 0.000000
0.001227 0.000970 0.000000
0.001227 0.000961 0.000000
0.001235 0.000956 0.000000
0.001231 0.000954 0.000000
0.001237 0.000951 0.000000
0.001244 0.000937 0.000000
0.001248 0.000947 0.000000
0.001253 0.000933 0.000000
0.001258 0.000933 0.000000
0.001257 0.000928 0.000000
0.001262 0.000926 0.000000
0.001266 0.000921 0.000000
0.001269 0.000918 0.000000
0.001272 0.000914 0.000000
0.001279 0.000906 0.000000
0.000019 0.000445 0.000000
0.000021 0.000450 0.000000
0.000018 0.000455 0.000000
0.000022 0.000458 0.000000
0.000019 0.000469 0.000000
0.000024 0.000467 0.000000
0.000018 0.000474 0.000000
0.000022 0.000479 0.000000
0.000019 0.000486 0.000000
0.000021 0.000490 0.000000
0.000020 0.000497 0.000000
0.000022 0.000499 0.000000
0.000039 0.000500 0.000000
0.001190 0.000973 0.000000
0.001198 0.000978 0.000000
0.001205 0.000970 0.000000
0.001210 0.000974 0.000000
0.001221 0.000962 0.000000
0.001218 0.000958 0.000000
0.001231 0.000950 0.000000
0.001222 0.000956 0.000000
0.001234 0.000946 0.000000
0.001233 0.000937 0.000000
0.001238 0.000932 0.000000
0.001244 0.000931 0.000000
0.001252 0.000926 0.000000
0.001256 0.000918 0.000000
0.001262 0.000917 0.000000
0.001265 0.000914 0.000000
0.001273 0.000909 0.000000
0.001276 0.000910 0.000000
0.001275 0.000903 0.000000
0.000024 0.000445 0.000000
0.000026 0.000450 0.000000
0.000024 0.000455 0.000000
0.000026 0.000462 0.000000
0.000021 0.000464 0.000000
0.000025 0.000472 0.000000
0.000023 0.000476 0.000000
0.000027 0.000481 0.000000
0.000023 0.000485 0.000000
0.000026 0.000488 0.000000
0.000026 0.000493 0.000000
0.000027 0.000500 0.000000
0.001166 0.001005 0.000000
0.001198 0.000981 0.000000
0.001202 0.000980 0.000000
0.001215 0.000963 0.000000
0.001211 0.000966 0.000000
0.001227 0.000957 0.000000
0.001225 0.000951 0.000000
0.001215 0.000959 0.000000
0.001221 0.000947 0.000000
0.001240 0.000947 0.000000
0.001237 0.000940 0.000000
0.001239 0.000944 0.000000
0.001249 0.000936 0.000000
0.001249 0.000930 0.000000
0.001260 0.000921 0.000000
0.001256 0.000923 0.000000
0.001268 0.000910 0.000000
0.001260 0.000912 0.000000
0.001269 0.000905 0.000000
0.001271 0.000899 0.000000
0.000030 0.000445 0.000000
0.000031 0.000450 0.000000
0.000029 0.000455 0.000000
0.000031 0.000459 0.000000
0.000031 0.000464 0.000000
0.000028 0.000469 0.000000
0.000031 0.000472 0.000000
0.000030 0.000477 0.000000
0.000030 0.000486 0.000000
0.000031 0.000492 0.000000
0.000033 0.000497 0.000000
0.000030 0.000499 0.000000
0.000048 0.000500 0.000000
0.001187 0.000980 0.000000
0.001199 0.000968 0.000000
0.001207 0.000965 0.000000
0.001204 0.000966 0.000000
0.001210 0.000961 0.000000
0.001216 0.000950 0.000000
0.001228 0.000939 0.000000
0.001228 0.000947 0.000000
0.001232 0.000941 0.000000
0.001241 0.000936 0.000000
0.001241 0.000922 0.000000
0.001246 0.000927 0.000000
0.001248 0.000923 0.000000
0.001251 0.000913 0.000000
0.001252 0.000919 0.000000
0.001258 0.000908 0.000000
0.001263 0.000908 0.000000
0.001267 0.000902 0.000000
0.001268 0.000896 0.000000
0.000035 0.000445 0.000000
0.000035 0.000450 0.000000
0.000034 0.000457 0.000000
0.000038 0.000454 0.000000
0.000035 0.000467 0.000000
0.000037 0.000472 0.000000
0.000032 0.000479 0.000000
0.000041 0.000479 0.000000
0.000035 0.000483 0.000000
0.000034 0.000488 0.000000
0.000037 0.000491 0.000000
0.000036 0.000498 0.000000
0.001124 0.001014 0.000000
0.001162 0.001006 0.000000
0.001195 0.000972 0.000000
0.001199 0.000962 0.000000
0.001212 0.000953 0.000000
0.001203 0.000951 0.000000
0.001220 0.000951 0.000000
0.001217 0.000945 0.000000
0.001225 0.000944 0.000000
0.001216 0.000936 0.000000
0.001224 0.000929 0.000000
0.001238 0.000923 0.000000
0.001239 0.000928 0.000000
0.001243 0.000919 0.000000
0.001256 0.000912 0.000000
0.001246 0.000902 0.000000
0.001258 0.000903 0.000000
0.001261 0.000903 0.000000
0.001264 0.000898 0.000000
0.001264 0.000893 0.000000
0.000040 0.000445 0.000000
0.000041 0.000450 0.000000
0.000036 0.000462 0.000000
0.000040 0.000458 0.000000
0.000042 0.000463 0.000000
0.000039 0.000468 0.000000
0.000042 0.000473 0.000000
0.000037 0.000477 0.000000
0.000041 0.000488 0.000000
0.000042 0.000491 0.000000
0.000041 0.000497 0.000000
0.000044 0.000498 0.000000
0.000973 0.000973 0.000000
0.001184 0.000987 0.000000
0.001186 0.000976 0.000000
0.001194 0.000959 0.000000
0.001208 0.000956 0.000000
0.001211 0.000948 0.000000
0.001208 0.000953 0.000000
0.001222 0.000940 0.000000
0.001228 0.000933 0.000000
0.001233 0.000933 0.000000
0.001224 0.000935 0.000000
0.001226 0.000919 0.000000
0.001237 0.000918 0.000000
0.001242 0.000912 0.000000
0.001247 0.000917 0.000000
0.001247 0.000912 0.000000
0.001252 0.000908 0.000000
0.001254 0.000900 0.000000
0.001260 0.000896 0.000000
0.001261 0.000890 0.000000
0.000044 0.000445 0.000000
0.000046 0.000450 0.000000
0.000044 0.000455 0.000000
0.000046 0.000460 0.000000
0.000044 0.000467 0.000000
0.000046 0.000474 0.000000
0.000046 0.000479 0.000000
0.000040 0.000483 0.000000
0.000051 0.000485 0.000000
0.000045 0.000483 0.000000
0.000048 0.000493 0.000000
0.000050 0.000498 0.000000
0.000979 0.000978 0.000000
0.001181 0.000997 0.000000
0.001200 0.000972 0.000000
0.001203 0.000958 0.000000
0.001199 0.000956 0.000000
0.001211 0.000944 0.000000
0.001212 0.000940 0.000000
0.001217 0.000940 0.000000
0.001218 0.000928 0.000000
0.001228 0.000926 0.000000
0.001233 0.000929 0.000000
0.001238 0.000914 0.000000
0.001232 0.000917 0.000000
0.001239 0.000909 0.000000
0.001246 0.000907 0.000000
0.001251 0.000904 0.000000
0.001249 0.000898 0.000000
0.001254 0.000896 0.000000
0.001256 0.000893 0.000000
0.001257 0.000886 0.000000
0.000049 0.000445 0.000000
0.000052 0.000450 0.000000
0.000049 0.000454 0.000000
0.000053 0.000455 0.000000
0.000048 0.000465 0.000000
0.000049 0.000471 0.000000
0.000053 0.000467 0.000000
0.000051 0.000477 0.000000
0.000047 0.000488 0.000000
0.000052 0.000491 0.000000
0.000057 0.000492 0.000000
0.000053 0.000498 0.000000
0.001067 0.001011 0.000000
0.001172 0.000994 0.000000
0.001182 0.000983 0.000000
0.001194 0.000962 0.000000
0.001200 0.000950 0.000000
0.001206 0.000947 0.000000
0.001201 0.000943 0.000000
0.001207 0.000941 0.000000
0.001213 0.000931 0.000000
0.001220 0.000934 0.000000
0.001216 0.000927 0.000000
0.001228 0.000924 0.000000
0.001226 0.000912 0.000000
0.001233 0.000922 0.000000
0.001237 0.000906 0.000000
0.001239 0.000898 0.000000
0.001242 0.000904 0.000000
0.001248 0.000893 0.000000
0.001252 0.000889 0.000000
0.001253 0.000883 0.000000
0.000054 0.000445 0.000000
0.000058 0.000450 0.000000
0.000054 0.000460 0.000000
0.000051 0.000461 0.000000
0.000060 0.000466 0.000000
0.000053 0.000473 0.000000
0.000058 0.000476 0.000000
0.000056 0.000481 0.000000
0.000052 0.000483 0.000000
0.000057 0.000486 0.000000
0.000056 0.000497 0.000000
0.000059 0.000496 0.000000
0.001090 0.001012 0.000000
0.001180 0.000998 0.000000
[...]
POINT_DATA 11748
SCALARS density float 1
LOOKUP_TABLE default
4428.527527
4432.301309
4424.266350
4427.008858
4432.978267
4427.064865
4432.655355
4428.834178
4430.904085
4420.113315
4430.521961
4405.201311
4430.628337
4420.693013
4415.615933
4436.306871
4434.687379
4432.051843
4446.248399
4443.726450
4429.233919
4421.963723
4403.633603
4434.916874
4425.902936
4422.321269
4452.129624
4420.302850
4417.256695
4447.714879
4423.710461
4408.573698
4429.771034
4430.571532
4428.974850
4429.098536
4430.265622
4422.578798
4431.634194
4424.460570
4421.333748
4429.795308
4450.466473
4408.893830
4412.157492
4425.770993
4420.083826
4408.336012
4426.009875
4427.864166
4438.718397
4461.684381
4442.285241
4431.169782
4411.164109
4391.708954
4434.975351
4396.054842
4433.301165
4458.790489
4419.792233
4439.606193
4403.719429
4409.305901
4421.478323
4425.769817
4440.215197
4420.679248
4430.008285
4420.249196
4451.917556
4392.858040
4467.006814
4385.152895
4447.430881
4401.456274
4461.417266
4438.945479
4429.087857
4397.948771
4421.261256
4410.982540
4462.220796
4449.197485
4443.618539
4385.344650
4412.474276
4430.736072
4391.975074
4451.755405
4450.297260
4397.211655
4426.544237
4434.485090
4445.453132
4408.391430
4424.514755
4439.188231
4438.822003
4415.450409
4424.383306
4451.230863
4458.135197
4388.060160
4471.365869
4381.802250
4509.186102
4403.730665
4436.520397
4405.875716
4417.084502
4464.288893
4439.973598
4432.551996
4432.955799
4392.221466
4438.639638
4430.582939
4436.312051
4442.539197
4397.955676
4472.076287
4427.617775
4471.698235
4430.742320
4355.586287
4490.338082
4443.624353
4437.679623
4424.534035
4439.028375
4443.932730
4397.274877
4453.389405
4429.147368
4443.419146
4471.825284
4376.992571
4467.060488
4435.266545
4417.923143
4435.410482
4457.254801
4391.026065
4459.240905
4398.029658
4458.228474
4436.791560
4429.164780
4394.434701
4419.872660
4423.279281
4420.793435
4430.368819
4415.479840
4465.164621
4456.398467
4418.029844
4387.628859
4418.833598
4435.053557
4435.531856
4435.734043
4401.659650
4433.462289
4418.693661
4460.243988
4368.524218
4432.498285
4470.660596
4411.826513
4425.806131
4436.718089
4435.047042
4376.671604
4447.152932
4397.771513
4444.301382
4394.244059
4437.657666
4475.037847
4448.245916
4428.391238
4454.068072
4430.022541
4465.967017
4390.860838
4426.871477
4410.687678
4421.489478
4473.397936
4415.780185
4421.951352
4431.954911
4412.676726
4445.744165
4441.998533
4439.569115
4387.431290
4448.601542
4446.769267
4415.074047
4452.451164
4419.700249
4422.730453
4441.083118
4458.142274
4460.550814
4426.355073
4418.080457
4405.988977
4425.708711
4442.987553
4452.190736
4440.037486
4452.798623
4426.204719
4391.977432
4404.812363
4455.725525
4422.138561
4388.793581
4418.997161
4444.336559
4428.729253
4427.211986
4433.561425
4438.827320
4432.369493
4438.227940
4453.439026
4418.935170
4393.144279
4430.185524
4421.180647
4443.729918
4417.482517
4427.115556
4394.944346
4409.932933
4423.751279
4445.903693
4452.829954
4406.407049
4407.205311
4439.846634
4396.470212
4466.007654
4405.695352
4439.665424
4448.607305
4439.204118
4449.745082
4455.168544
4402.195917
4413.187495
4433.681432
4420.720822
4399.122600
4443.181965
4438.324421
4440.877242
4426.826838
4420.977567
4442.583742
4431.335589
4429.689817
4423.335078
4438.359996
4456.802523
4403.949554
4448.764644
4440.692267
4466.042092
4441.300271
4422.867895
4413.573665
4436.675911
4450.343336
4403.912713
4424.366749
4434.508587
4434.094434
4424.010862
4425.381646
4386.142133
4442.367464
4436.759196
4427.671098
4423.709302
4410.261287
4443.161685
4401.318169
4451.682918
4428.933715
4445.703351
4455.545645
4420.882018
4473.142547
4429.932815
4427.497102
4442.550200
4410.590173
4427.696481
4429.944692
4437.711878
4433.618073
4442.308768
4464.040815
4454.632438
4432.578533
4410.937493
4454.974393
4448.444636
4429.871835
4442.991244
4445.121683
4415.472137
4439.380908
4433.181816
4421.230414
4425.781403
4452.445477
4403.990027
4427.331957
4445.133663
4420.150560
4380.285506
4387.746666
4417.469146
4542.410970
4403.951060
4439.841314
4426.070775
4388.584146
4457.494724
4445.194100
4376.656089
4461.106127
4434.657118
4389.294141
4422.687605
4443.849930
4449.117788
4383.766141
4385.958475
4434.176075
4451.943184
4408.303614
4437.975898
4411.351947
4430.259618
4443.162231
4419.127366
4444.306780
4419.111935
4416.437796
4441.860550
4418.156553
4455.744605
4471.624123
4343.452909
4410.122467
4392.813456
4432.939355
4429.809038
4422.043623
4395.651700
4453.018369
4436.231515
4389.624289
4443.397143
4426.626560
4390.140555
4445.289785
4434.257027
4458.802219
4415.950260
4454.038586
4400.652658
4408.720441
4442.484076
4431.674438
4428.096035
4432.645954
4432.735997
4435.929889
4408.580733
4419.891111
4453.767207
4426.001502
4448.319131
4456.969543
4423.440745
4442.504346
4441.326781
4412.858073
4423.701005
4416.593304
4380.280384
4396.508833
4426.532074
4446.311990
4427.810930
4450.748728
4434.002640
4458.293871
4402.540098
4406.993048
4440.563020
4438.048082
4400.131244
4427.733402
4435.362377
4431.295916
4433.079539
4437.557699
4440.570175
4445.868953
4411.295303
4432.101446
4421.256513
4382.438966
4412.065557
4426.392833
4391.598423
4433.140194
4455.512230
4413.389151
4430.795982
4417.480961
4383.752770
4431.638529
4372.929922
4445.719315
4426.752490
4431.379693
4453.337608
4462.578286
4444.391029
4416.289778
4458.597233
4424.219799
4411.351383
4431.514753
4450.055565
4420.513344
4429.893248
4410.764748
4416.477278
4438.450622
4453.809740
4433.911498
4429.104132
4439.061962
4411.331994
4389.114572
4431.086394
4446.237849
4448.140521
4431.964488
4441.437273
4424.290083
4466.817259
4442.865386
4466.495611
4462.043299
4440.649275
4381.158373
4411.903867
4440.909520
4436.808660
4468.961120
4398.297685
4438.571504
4418.082458
4440.360458
4398.766080
4433.283008
4433.641561
4445.169158
4400.998684
4430.926960
4406.348376
4416.616919
4418.145820
4472.183166
4415.036687
4451.617290
4393.588573
4381.188582
4452.846492
4430.774428
4429.264816
4431.220692
4451.971365
4444.099154
4403.608351
4413.293293
4418.016853
4385.410174
4408.114158
4445.176111
4431.681406
4410.633037
4447.090133
4404.578858
4433.078625
4444.831905
4419.923572
4443.269935
4417.935467
4427.985288
4443.378804
4436.698009
4432.274066
4448.173312
4399.508827
4407.089507
4451.298529
4433.459997
4408.675495
4425.310159
4426.542435
4419.741604
4421.410922
4429.100916
4434.352336
4472.661233
4441.599209
4410.964091
4438.231200
4412.082359
4475.374195
4407.943467
4414.492045
4404.845306
4409.748758
4431.793877
4437.931434
4407.072486
4430.088144
4430.121970
4443.629409
4440.725060
4439.083434
4444.706044
4432.296321
4423.192459
4429.703411
4420.720923
4432.805919
4386.029136
4496.154239
4434.802103
4437.671811
4430.688844
4428.672256
4439.793620
4432.488093
4464.475477
4416.460288
4486.258622
4505.870235
4424.350203
4428.976416
4389.790207
4456.218908
4450.193501
4445.147839
4399.385982
4435.015219
4441.876670
4442.160602
4419.870459
4433.218280
4416.867829
4432.541899
4411.693115
4412.886309
4451.017336
4424.967347
4444.021066
4455.577724
4452.351294
4422.353616
4395.642682
4432.718604
4421.437755
4427.239065
4435.221472
4447.590025
4421.519383
4436.330835
4429.193958
4432.461651
4445.478726
4442.196465
4452.092709
4404.108798
4440.817590
4424.408362
4450.707398
4432.623316
4414.588516
4409.590262
4428.576183
4424.806669
4458.070486
4407.702085
4453.456114
4444.498848
4417.013467
4414.363812
4453.921240
4395.039366
4420.753669
4446.052344
4431.330979
4431.406025
4408.560909
4442.730893
4439.904522
4473.487218
4426.316726
4437.873773
4434.429121
4435.918157
4489.265326
4438.178197
4456.306475
4423.979555
4398.815288
4396.354851
4438.018858
4428.864211
4425.506355
4442.365798
4443.074496
4431.243741
4429.896462
4442.539276
4444.689992
4405.944921
4442.873217
4437.539449
4426.890838
4413.477316
4441.837454
4459.928822
4401.645556
4503.562562
4422.049823
4430.016014
4419.455577
4473.887393
4440.559001
4417.706744
4356.404018
4432.090421
4396.329825
4458.672803
4485.376209
4422.528177
4479.714054
4456.539032
4421.362870
4416.472176
4451.516243
4439.915067
4411.790855
4430.489469
4434.639086
4417.194808
4433.472371
4444.598881
4432.613099
4439.656927
4444.979358
4447.497290
4461.782366
4360.209450
4429.233490
4428.206982
4433.749212
4421.578101
4430.440933
4444.985326
4447.039724
4418.583431
4446.151378
4434.975700
4397.634916
4353.043848
4450.323497
4404.995842
4438.087256
4425.452972
4412.612574
4422.822592
4434.104855
4414.820692
4444.554907
4431.199501
4422.393497
4425.097120
4392.814433
4435.744778
4432.032934
4417.155158
4435.066092
4423.491899
4443.543385
4390.955398
4413.912711
4450.102718
4427.675383
4469.618488
4380.769314
4448.368867
4434.388507
4433.516502
4424.418238
4462.490848
4439.960436
4361.513718
4369.162631
4450.455591
4383.914093
4401.876144
4424.231407
4435.879076
4428.496942
4421.607644
4426.831835
4422.323252
4435.172330
4436.981237
4458.881306
4419.553911
4408.495034
4428.686871
4425.395858
4432.793481
4451.669940
4442.268100
4445.280925
4430.357736
4461.688550
4410.169093
4437.972013
4387.689112
4354.960979
4403.926310
4400.511757
4423.509757
4378.364487
4448.580734
4443.110960
4464.266447
4442.638395
4442.528659
4416.825880
4446.943156
4450.887321
4414.612426
4439.547511
4423.023857
4428.576133
4430.491416
4430.692356
4430.801636
4430.585405
4430.057551
4429.641408
4429.194436
4429.376574
4430.072005
4431.210106
4431.691865
4431.511310
4430.955642
4430.400554
4429.179673
4430.027337
4428.864908
4428.828112
4429.562407
4430.667674
4432.139203
4433.280879
4433.443387
4431.902014
4429.638246
4428.200120
4428.611973
4430.156694
4431.035573
4429.543247
4430.229120
4431.425609
4431.765902
4431.306271
4429.884037
4428.609407
4426.943861
4427.051809
4428.582870
4431.465283
4433.128154
4432.075755
4430.508549
4428.516112
4429.913417
4429.797814
4428.560375
4428.262360
4428.860659
4430.334644
4431.850429
4433.738431
4433.714797
4432.043910
4429.003764
4426.828974
4426.682754
4428.492507
4429.390325
4429.982487
4430.012906
4431.446251
4431.836899
4431.227680
4429.852150
4428.258047
4426.323683
4426.378440
4427.814229
4431.112907
4432.560473
4432.964276
4428.878581
4429.715256
4429.876487
4429.614244
4428.634383
4427.648274
4429.058703
4429.606674
4432.073308
4432.994346
4434.081036
4431.121108
4429.251107
4425.968068
4427.358795
4428.275513
4430.604626
4429.993024
4429.822351
4431.518330
4431.660730
4431.137682
4429.654391
4428.009855
4426.096697
4426.024010
4427.627255
4430.551244
4432.692413
4431.388232
4428.997004
4426.348899
4429.737043
4429.593172
4428.442895
4427.724670
4428.527897
4429.845467
4431.391967
4433.269229
4433.395609
4431.452798
4428.647343
4425.894757
4426.921807
4427.277670
4429.629758
4429.369355
4430.026356
4431.009147
4431.639250
4431.116646
4429.261862
4428.097034
4425.644845
4426.156281
4427.108914
4430.720567
4432.713402
4432.716878
4429.565342
4431.358999
4429.597663
4429.497546
4428.314814
4427.593413
4428.308621
4429.740999
4431.088273
4433.087386
4433.163291
4431.258199
4428.784214
4425.630124
4427.880384
4429.537393
4428.553125
4429.453306
4429.865287
4430.971608
4431.646756
4430.640848
4429.465828
4427.331989
4426.038326
4425.660162
4427.219234
4430.044018
4433.364960
4430.614247
4429.731736
4427.732348
4429.423127
4429.513490
4428.063045
4427.383294
4428.143586
4429.358592
4431.056693
4432.728380
4433.071815
4431.273575
4428.304579
4425.630038
4427.491094
4427.838942
4428.596052
4429.218115
4429.588389
4430.930180
4431.396279
4430.532651
4429.142112
4427.367364
4425.685340
4425.961763
4426.524515
4430.469112
4432.850995
4432.033905
4430.010787
4430.936094
4444.891907
4454.105025
4388.164300
4443.927622
4424.620030
4443.238872
4429.220882
4415.745413
4396.624575
4459.134404
4458.034477
4411.570838
4429.022812
4452.643604
4435.616649
4423.224786
4429.154456
4429.276077
4428.163569
4426.763652
4428.272697
4428.895523
4430.961882
4432.466538
4432.701782
4431.098743
4428.324806
4425.369409
4428.212528
4429.328165
4431.292474
4435.916463
4422.358838
4427.142023
4426.457513
4436.791896
4436.250299
4436.227359
4438.185559
4394.748461
4404.104661
4418.767052
4438.016669
4421.391945
4382.204192
4426.641054
4411.119696
4428.785667
4429.522525
4430.619350
4431.289331
4430.368110
4428.777500
4427.461273
4425.270000
4426.173112
4426.055202
4429.862322
4432.800018
4431.378258
4429.250072
4430.098059
4443.373203
4419.033981
4451.987615
4417.015845
4416.500763
4449.816705
4412.385330
4435.768222
4405.448496
4429.862843
4430.738473
4438.833523
4430.739281
4424.280804
4440.394056
4423.874908
4428.947191
4429.410248
4427.670066
4427.004495
4427.485828
4429.416342
4429.970333
4432.879536
4431.545137
4431.220338
4427.923058
4424.468530
4426.983054
4426.764910
4428.335948
4434.992002
4436.041755
4419.329723
4385.681876
4380.172069
4451.712988
4429.055830
4423.888548
4440.253105
4454.419121
4433.444946
4437.405934
4372.969201
4412.076158
4438.695596
4450.526342
4428.565733
4429.612192
4430.199063
4431.326311
4430.128891
4428.755574
4427.088205
4425.399673
4425.680261
4425.911547
4428.712098
4432.970904
4429.466078
4427.740395
4427.463019
4454.465404
4408.102987
4446.240857
4446.418454
4441.310305
4437.337365
4437.672274
4453.792926
4434.700182
4428.636794
4388.621765
4440.524082
4415.711589
4412.313461
4433.984924
4421.934966
4428.463137
4429.258088
4427.553455
4426.874106
4427.252708
4429.365122
4429.748183
4432.550431
4431.274577
4430.780517
4427.683909
4424.200981
4426.292979
4427.580835
4425.482942
4435.596906
4419.859754
4417.460926
4405.250858
4472.354783
4394.425898
4428.783438
4454.439243
4440.071562
4401.574250
4396.672125
4421.662506
4424.275389
4421.688909
4447.888945
4418.905546
4428.537803
4429.614402
4429.923783
4431.381626
4429.814549
4428.889891
4426.560119
4425.740602
4425.481764
4425.792136
4428.230431
4432.864460
4428.829843
4428.487064
4427.494637
4428.408146
4468.377190
4459.997938
4428.956850
4351.992208
4437.548135
4431.999567
4431.625556
4416.958203
4437.829543
4434.816681
4462.513096
4444.029204
4415.493072
4488.616111
4412.942973
4428.179294
4429.166905
4427.354985
4426.681360
4427.017932
4429.028175
4429.587127
4432.377011
4431.045739
4430.790733
4427.726130
4424.278091
4427.017556
4426.788429
4426.749670
4401.688749
4444.889116
4405.277132
4383.013428
4390.982902
4487.439616
4421.439082
4425.422571
4422.079181
4431.199804
4441.133514
4386.432344
4461.217380
4388.768684
4436.112780
4425.910639
4428.280216
4429.267743
4430.009081
4430.929162
4429.952622
4428.303076
4426.812639
4425.454971
4426.307408
4425.131282
4428.561025
4432.742119
4429.712497
4428.646769
4426.343091
4434.006996
4424.320156
4399.311046
4403.368281
4434.753734
4437.305654
4424.232177
4420.827949
4483.027433
4451.597025
4435.697127
4407.759135
4457.262330
4447.630366
4404.158366
4392.948872
4428.161698
4428.756790
4427.588324
4426.159451
4427.163933
4428.389486
4429.764980
4431.921244
4431.168345
4430.601131
4427.683628
4424.308474
4426.674649
4426.597452
4427.628423
4446.410622
4426.707098
4423.090066
4478.613610
4373.876113
4416.942672
4424.045732
4431.194966
4387.441001
4441.917466
4454.045461
4445.876011
4407.014341
4424.641576
4420.555346
4440.706973
4428.087439
4429.053249
4429.893173
4430.697604
4429.968364
4428.051231
4426.751821
4425.748574
4426.375166
4424.821487
4428.190380
4432.596742
4430.300959
4428.236485
4428.053837
4410.095257
4447.050921
4407.592411
4460.557379
4459.338350
4433.193590
4446.913312
4482.945212
4412.932157
4446.496518
4408.204219
4435.427353
4462.180113
4405.225036
4458.393348
4407.905653
4427.983935
4428.833402
4427.263999
4426.497733
4426.444281
4428.753992
4429.216085
4431.739501
4431.056193
4430.265292
4427.352353
4423.976039
4425.303833
4426.101814
4424.798904
4436.341091
4471.554309
4440.303664
4384.818055
4440.024990
4423.773601
4423.754549
4432.560553
4460.101616
4463.891658
4456.783147
4418.150181
4415.789187
4413.454788
4422.197525
4427.412760
4427.803099
4429.302206
4429.280880
4430.881611
4430.028687
4427.941814
4426.647843
4426.315315
4425.881212
4424.959707
4427.236506
4432.395935
4428.365273
4427.583920
4424.857910
4415.313317
4436.235635
4420.055986
4433.299647
4414.517030
4439.019145
4440.717898
4435.817333
4450.085041
4433.714291
4411.944549
4460.629640
4431.011566
4412.125436
4476.336940
4441.782904
4427.642670
4429.040153
4426.941261
4426.863233
4425.871489
4429.337326
4428.488773
4432.123108
4430.306996
4430.472898
4426.758887
4424.215258
4424.903003
4425.412564
4426.160998
4408.328645
4437.495351
4403.675374
4422.836074
4445.082007
4431.959951
4429.092384
4440.801526
4428.243866
4446.787173
4433.518158
4437.332254
4427.459411
4406.747185
4397.800644
4448.015525
4427.535635
4429.571466
4428.745448
4431.496265
4429.304543
4428.398655
4425.964897
4426.994667
4425.554738
4425.286001
4426.727363
4432.151855
4428.653547
4427.629868
4425.108678
4425.248689
4428.262788
4406.666378
4457.725288
4387.298209
4430.693778
4420.207643
4445.208458
4420.990353
4436.124580
4411.063555
4399.134078
4450.000740
4446.003160
4413.634742
4400.930218
4427.725903
4428.885416
4427.176351
4426.378192
4426.317290
4428.398063
4428.781610
4432.242918
4430.076669
4430.621015
4427.032662
4424.764005
4424.245848
4425.693746
4423.880239
4436.341397
4431.335935
4422.124722
4420.595527
4404.956221
4442.325626
4420.655369
4429.086562
4426.918061
4446.911833
4452.230924
4425.194042
4456.516914
4436.791269
4435.351831
4430.323784
4427.726968
4429.013720
4429.369993
4430.939935
4429.406877
4428.161489
4426.453808
4426.584039
4426.888018
4424.929033
4426.501059
4432.278362
4429.782213
4427.268665
4426.144362
4422.562374
4419.462023
4437.322977
4440.294023
4391.535609
4430.623584
4442.271241
4415.754795
4450.175922
4424.633661
4454.381921
4374.892551
4439.100043
4443.328411
4423.134469
4416.158737
4428.026479
4428.823755
4427.298403
4426.267290
4426.237068
4427.886922
4429.202477
4431.719806
4430.524780
4429.947258
4427.923671
4423.996498
4425.303855
4424.908134
4425.561007
4442.861002
4445.220928
4442.791543
4457.207300
4388.477187
4416.360145
4439.737833
4361.697970
4470.011980
4434.443351
4440.847033
4410.148622
4442.199906
4462.709937
4407.307375
4417.787790
4427.772382
4428.614664
4429.547951
4430.242692
4430.296780
4427.149815
4427.359002
4426.223535
4427.526499
4424.167748
4426.513204
4432.618365
4428.668091
4426.496976
4426.312445
4439.950651
4422.470084
4421.852332
4460.452326
4384.711588
4435.422532
4441.066735
4425.413250
4473.466518
4477.859639
4472.507097
4426.168144
4399.292823
4458.069697
4365.085372
4422.319978
4427.780526
4429.174037
4427.098671
4426.821758
4425.326372
4429.157509
4428.417396
4431.904128
4430.921496
4430.576740
4426.958515
4424.769694
4423.931881
4423.850500
4424.763665
4430.957355
4431.214471
4411.786164
4383.278311
4422.980713
4444.779174
4434.921852
4430.538150
4383.959551
4451.581510
4400.364863
4439.615343
4431.202066
4394.016063
4413.480792
4446.843719
4427.544995
4429.376560
4428.127867
4431.763058
4429.786565
4428.305000
4426.880077
4428.409829
4426.018214
4424.491182
4427.234094
4431.060086
4428.181992
4427.578978
4424.153363
4428.353769
4426.016521
4428.184425
4434.177217
4457.910657
4421.414515
4426.663318
4470.239517
4442.802231
4417.722198
4444.939911
4416.339932
4477.340715
4411.554850
4568.813749
4411.840251
4427.660831
4428.979793
4427.842380
4426.419203
4426.086571
4428.762086
4428.086254
4432.530681
4430.335594
4430.021842
4426.694537
4426.254773
4423.956710
4425.392107
4422.144053
4426.921574
4420.494357
4438.745292
4430.281996
4465.198278
4466.006945
4437.448233
4444.692158
4492.045590
4435.311500
4443.550741
4432.342739
4445.799265
4435.656778
4275.294626
4426.963580
4427.973363
4429.522359
4428.305228
4431.864932
4429.211106
4428.495166
4425.802728
4428.749815
4424.960036
4425.795343
4426.577317
4430.353912
4427.393898
4426.836534
4422.333722
4420.913060
4413.614178
4393.801826
4406.068158
4448.123911
4411.983980
4440.017661
4439.866158
4455.443700
4403.373817
4399.964397
4444.621240
4447.043467
4416.510683
4382.909720
4403.788986