# vtk DataFile Version 2.0
mfree iwf
ASCII

DATASET UNSTRUCTURED_GRID
POINTS 10185 float
0.000000 0.000445 0.000000
0.000000 0.000450 0.000000
0.000000 0.000455 0.000000
0.000000 0.000460 0.000000
0.000000 0.000465 0.000000
0.000000 0.000470 0.000000
0.000000 0.000475 0.000000
0.000000 0.000480 0.000000
0.000000 0.000485 0.000000
0.000000 0.000490 0.000000
-0.000000 0.000496 0.000000
0.000002 0.000500 0.000000
0.000568 0.000841 0.000000
0.000576 0.000846 0.000000
0.000620 0.000861 0.000000
0.000626 0.000862 0.000000
0.000626 0.000862 0.000000
0.000632 0.000864 0.000000
0.000640 0.000865 0.000000
0.000636 0.000865 0.000000
0.000650 0.000868 0.000000
0.000676 0.000874 0.000000
0.000683 0.000873 0.000000
0.000687 0.000873 0.000000
0.000692 0.000872 0.000000
0.000697 0.000871 0.000000
0.000701 0.000871 0.000000
0.000707 0.000870 0.000000
0.000710 0.000869 0.000000
0.000717 0.000868 0.000000
0.000723 0.000867 0.000000
0.000748 0.000866 0.000000
0.000005 0.000445 0.000000
0.000005 0.000450 0.000000
0.000005 0.000455 0.000000
0.000005 0.000460 0.000000
0.000005 0.000465 0.000000
0.000005 0.000470 0.000000
0.000005 0.000475 0.000000
0.000005 0.000480 0.000000
0.000005 0.000485 0.000000
0.000006 0.000490 0.000000
0.000004 0.000496 0.000000
0.000006 0.000499 0.000000
0.000615 0.000859 0.000000
0.000626 0.000855 0.000000
0.000656 0.000868 0.000000
0.000663 0.000870 0.000000
0.000668 0.000870 0.000000
0.000672 0.000870 0.000000
0.000675 0.000870 0.000000
0.000680 0.000869 0.000000
0.000684 0.000868 0.000000
0.000691 0.000868 0.000000
0.000697 0.000866 0.000000
0.000704 0.000866 0.000000
0.000710 0.000863 0.000000
0.000719 0.000863 0.000000
0.000722 0.000862 0.000000
0.000728 0.000861 0.000000
0.000739 0.000864 0.000000
0.000741 0.000864 0.000000
0.000735 0.000865 0.000000
0.000746 0.000864 0.000000
0.000010 0.000445 0.000000
0.000010 0.000450 0.000000
0.000010 0.000455 0.000000
0.000010 0.000460 0.000000
0.000010 0.000465 0.000000
0.000011 0.000470 0.000000
0.000010 0.000475 0.000000
0.000011 0.000480 0.000000
0.000009 0.000486 0.000000
0.000012 0.000490 0.000000
0.000009 0.000497 0.000000
0.000011 0.000498 0.000000
0.000619 0.000856 0.000000
0.000630 0.000855 0.000000
0.000644 0.000862 0.000000
0.000650 0.000865 0.000000
0.000655 0.000866 0.000000
0.000660 0.000867 0.000000
0.000659 0.000860 0.000000
0.000666 0.000863 0.000000
0.000670 0.000863 0.000000
0.000677 0.000865 0.000000
0.000685 0.000864 0.000000
0.000691 0.000864 0.000000
0.000694 0.000861 0.000000
0.000699 0.000858 0.000000
0.000706 0.000862 0.000000
0.000716 0.000862 0.000000
0.000731 0.000861 0.000000
0.000734 0.000862 0.000000
0.000742 0.000860 0.000000
0.000747 0.000856 0.000000
0.000015 0.000445 0.000000
0.000016 0.000450 0.000000
0.000015 0.000455 0.000000
0.000016 0.000460 0.000000
0.000015 0.000465 0.000000
0.000016 0.000470 0.000000
0.000014 0.000476 0.000000
0.000016 0.000480 0.000000
0.000014 0.000485 0.000000
0.000016 0.000489 0.000000
0.000014 0.000495 0.000000
0.000016 0.000498 0.000000
0.000025 0.000500 0.000000
0.000633 0.000857 0.000000
0.000646 0.000862 0.000000
0.000648 0.000857 0.000000
0.000660 0.000861 0.000000
0.000665 0.000868 0.000000
0.000674 0.000862 0.000000
0.000678 0.000859 0.000000
0.000680 0.000855 0.000000
0.000687 0.000860 0.000000
0.000700 0.000852 0.000000
0.000700 0.000863 0.000000
0.000709 0.000855 0.000000
0.000712 0.000859 0.000000
0.000717 0.000856 0.000000
0.000721 0.000857 0.000000
0.000726 0.000856 0.000000
0.000732 0.000856 0.000000
0.000737 0.000856 0.000000
0.000747 0.000853 0.000000
0.000020 0.000445 0.000000
0.000021 0.000450 0.000000
0.000019 0.000456 0.000000
0.000022 0.000459 0.000000
0.000018 0.000466 0.000000
0.000024 0.000468 0.000000
0.000018 0.000474 0.000000
0.000022 0.000479 0.000000
0.000019 0.000486 0.000000
0.000021 0.000491 0.000000
0.000021 0.000497 0.000000
0.000022 0.000499 0.000000
0.000039 0.000500 0.000000
0.000636 0.000848 0.000000
0.000639 0.000855 0.000000
0.000647 0.000853 0.000000
0.000651 0.000860 0.000000
0.000661 0.000855 0.000000
0.000669 0.000852 0.000000
0.000682 0.000861 0.000000
0.000673 0.000857 0.000000
0.000689 0.000851 0.000000
0.000693 0.000847 0.000000
0.000699 0.000847 0.000000
0.000704 0.000853 0.000000
0.000713 0.000853 0.000000
0.000718 0.000850 0.000000
0.000727 0.000850 0.000000
0.000730 0.000851 0.000000
0.000739 0.000850 0.000000
0.000741 0.000854 0.000000
0.000746 0.000849 0.000000
0.000025 0.000445 0.000000
0.000026 0.000450 0.000000
0.000024 0.000455 0.000000
0.000026 0.000461 0.000000
0.000023 0.000465 0.000000
0.000025 0.000472 0.000000
0.000023 0.000476 0.000000
0.000027 0.000481 0.000000
0.000023 0.000485 0.000000
0.000026 0.000488 0.000000
0.000026 0.000492 0.000000
0.000027 0.000500 0.000000
0.000595 0.000853 0.000000
0.000636 0.000857 0.000000
0.000640 0.000858 0.000000
0.000655 0.000856 0.000000
0.000657 0.000852 0.000000
0.000668 0.000858 0.000000
0.000674 0.000852 0.000000
0.000666 0.000854 0.000000
0.000678 0.000847 0.000000
0.000686 0.000856 0.000000
0.000695 0.000856 0.000000
0.000691 0.000856 0.000000
0.000704 0.000857 0.000000
0.000708 0.000849 0.000000
0.000723 0.000852 0.000000
0.000718 0.000846 0.000000
0.000735 0.000850 0.000000
0.000728 0.000845 0.000000
0.000740 0.000847 0.000000
0.000745 0.000843 0.000000
0.000030 0.000445 0.000000
0.000031 0.000450 0.000000
0.000030 0.000456 0.000000
0.000030 0.000460 0.000000
0.000032 0.000464 0.000000
0.000028 0.000469 0.000000
0.000032 0.000472 0.000000
0.000031 0.000477 0.000000
0.000031 0.000486 0.000000
0.000031 0.000492 0.000000
0.000033 0.000497 0.000000
0.000031 0.000499 0.000000
0.000049 0.000500 0.000000
0.000628 0.000848 0.000000
0.000647 0.000849 0.000000
0.000653 0.000853 0.000000
0.000652 0.000848 0.000000
0.000662 0.000850 0.000000
0.000673 0.000846 0.000000
0.000684 0.000851 0.000000
0.000679 0.000850 0.000000
0.000687 0.000846 0.000000
0.000696 0.000851 0.000000
0.000710 0.000844 0.000000
0.000704 0.000846 0.000000
0.000713 0.000848 0.000000
0.000716 0.000842 0.000000
0.000722 0.000846 0.000000
0.000729 0.000840 0.000000
0.000734 0.000844 0.000000
0.000739 0.000842 0.000000
0.000745 0.000839 0.000000
0.000035 0.000445 0.000000
0.000035 0.000450 0.000000
0.000034 0.000456 0.000000
0.000038 0.000455 0.000000
0.000034 0.000467 0.000000
0.000037 0.000473 0.000000
0.000032 0.000479 0.000000
0.000042 0.000479 0.000000
0.000035 0.000483 0.000000
0.000034 0.000488 0.000000
0.000038 0.000491 0.000000
0.000036 0.000498 0.000000
0.000559 0.000833 0.000000
0.000592 0.000852 0.000000
0.000640 0.000847 0.000000
0.000649 0.000844 0.000000
0.000662 0.000845 0.000000
0.000660 0.000840 0.000000
0.000668 0.000848 0.000000
0.000673 0.000841 0.000000
0.000684 0.000844 0.000000
0.000683 0.000839 0.000000
0.000692 0.000838 0.000000
0.000701 0.000842 0.000000
0.000705 0.000841 0.000000
0.000715 0.000837 0.000000
0.000724 0.000841 0.000000
0.000723 0.000831 0.000000
0.000732 0.000840 0.000000
0.000735 0.000836 0.000000
0.000739 0.000838 0.000000
0.000744 0.000834 0.000000
0.000040 0.000445 0.000000
0.000041 0.000450 0.000000
0.000036 0.000462 0.000000
0.000040 0.000458 0.000000
0.000041 0.000463 0.000000
0.000040 0.000468 0.000000
0.000041 0.000472 0.000000
0.000037 0.000477 0.000000
0.000041 0.000488 0.000000
0.000042 0.000491 0.000000
0.000041 0.000497 0.000000
0.000044 0.000498 0.000000
0.000472 0.000701 0.000000
0.000622 0.000854 0.000000
0.000632 0.000845 0.000000
0.000648 0.000838 0.000000
0.000657 0.000846 0.000000
0.000669 0.000843 0.000000
0.000664 0.000841 0.000000
0.000679 0.000842 0.000000
0.000688 0.000841 0.000000
0.000694 0.000843 0.000000
0.000687 0.000836 0.000000
0.000701 0.000836 0.000000
0.000705 0.000835 0.000000
0.000714 0.000833 0.000000
0.000711 0.000840 0.000000
0.000720 0.000838 0.000000
0.000725 0.000836 0.000000
0.000731 0.000833 0.000000
0.000738 0.000833 0.000000
0.000743 0.000830 0.000000
0.000044 0.000445 0.000000
0.000047 0.000450 0.000000
0.000044 0.000454 0.000000
0.000046 0.000461 0.000000
0.000044 0.000468 0.000000
0.000046 0.000474 0.000000
0.000046 0.000479 0.000000
0.000040 0.000483 0.000000
0.000052 0.000486 0.000000
0.000045 0.000483 0.000000
0.000048 0.000493 0.000000
0.000050 0.000498 0.000000
0.000474 0.000710 0.000000
0.000613 0.000857 0.000000
0.000642 0.000851 0.000000
0.000654 0.000843 0.000000
0.000654 0.000838 0.000000
0.000669 0.000838 0.000000
0.000674 0.000835 0.000000
0.000678 0.000837 0.000000
0.000685 0.000832 0.000000
0.000695 0.000833 0.000000
0.000696 0.000838 0.000000
0.000709 0.000837 0.000000
0.000699 0.000831 0.000000
0.000711 0.000828 0.000000
0.000720 0.000833 0.000000
0.000727 0.000831 0.000000
0.000728 0.000827 0.000000
0.000734 0.000829 0.000000
0.000738 0.000828 0.000000
0.000743 0.000825 0.000000
0.000049 0.000445 0.000000
0.000052 0.000450 0.000000
0.000048 0.000456 0.000000
0.000053 0.000458 0.000000
0.000048 0.000464 0.000000
0.000050 0.000472 0.000000
0.000051 0.000467 0.000000
0.000051 0.000477 0.000000
0.000047 0.000488 0.000000
0.000052 0.000491 0.000000
0.000058 0.000492 0.000000
0.000053 0.000498 0.000000
0.000517 0.000792 0.000000
0.000608 0.000849 0.000000
0.000622 0.000849 0.000000
0.000645 0.000841 0.000000
0.000657 0.000835 0.000000
0.000663 0.000836 0.000000
0.000666 0.000832 0.000000
0.000670 0.000833 0.000000
0.000682 0.000828 0.000000
0.000680 0.000833 0.000000
0.000688 0.000827 0.000000
0.000699 0.000827 0.000000
0.000704 0.000828 0.000000
0.000707 0.000830 0.000000
0.000716 0.000828 0.000000
0.000720 0.000821 0.000000
0.000721 0.000826 0.000000
0.000732 0.000823 0.000000
0.000737 0.000823 0.000000
0.000742 0.000820 0.000000
0.000054 0.000445 0.000000
0.000057 0.000450 0.000000
0.000053 0.000454 0.000000
0.000053 0.000463 0.000000
0.000057 0.000467 0.000000
0.000054 0.000472 0.000000
0.000057 0.000477 0.000000
0.000057 0.000480 0.000000
0.000052 0.000483 0.000000
0.000057 0.000486 0.000000
0.000056 0.000497 0.000000
0.000059 0.000496 0.000000
0.000533 0.000809 0.000000
0.000611 0.000858 0.000000
0.000614 0.000851 0.000000
[...]
POINT_DATA 10185
SCALARS density float 1
LOOKUP_TABLE default
4428.231074
4429.665412
4429.150377
4425.682763
4431.942177
4429.087484
4429.413224
4430.425672
4438.062655
4423.719797
4431.104191
4400.377155
4419.461738
4426.776082
4433.774455
4432.210704
4441.151487
4440.975463
4448.124574
4441.065193
4429.656921
4431.479503
4407.672815
4441.167890
4434.508521
4421.765375
4445.466180
4437.520404
4418.015103
4450.493464
4428.189803
4422.151278
4430.003323
4428.707373
4425.118107
4431.791312
4432.056239
4421.712671
4431.460019
4425.626694
4405.513852
4415.974775
4455.898339
4407.634219
4420.876069
4430.345817
4418.124746
4407.544156
4422.890101
4420.434492
4436.778415
4452.718531
4434.765186
4399.206572
4435.177816
4397.382314
4427.981255
4401.536503
4416.715848
4467.894022
4405.041441
4430.608137
4394.976596
4407.273293
4427.246614
4429.719038
4432.856850
4428.810954
4418.889622
4420.235898
4451.083945
4386.923952
4488.122531
4371.808599
4456.323472
4397.357409
4425.891711
4447.403056
4433.059346
4394.222216
4426.298408
4403.921656
4472.281397
4424.511302
4439.669860
4400.562293
4418.648652
4456.815735
4420.911350
4421.688670
4450.150021
4416.887863
4444.311695
4435.780758
4472.467634
4417.187981
4426.114382
4433.508438
4441.884566
4416.273993
4451.543342
4400.522881
4471.406999
4376.480779
4477.932008
4377.771252
4524.013551
4401.204995
4437.857641
4393.203609
4435.501897
4421.884827
4466.300733
4450.601861
4407.398297
4450.279803
4413.367059
4431.062915
4429.620856
4432.286217
4418.116763
4437.778082
4449.099139
4467.832851
4410.538042
4349.348578
4501.337998
4463.470290
4435.602798
4434.718698
4445.500966
4432.569287
4435.626840
4437.570250
4421.896242
4455.233322
4476.450772
4367.492305
4474.363755
4437.209539
4419.156211
4419.331052
4436.196999
4424.121934
4487.793726
4400.423051
4468.189300
4423.656569
4455.998994
4420.367693
4422.575961
4422.712973
4438.762846
4421.326264
4408.966562
4467.468452
4461.703945
4441.534822
4330.116977
4416.836901
4428.820543
4427.901904
4440.261727
4416.457690
4431.960899
4412.401848
4473.482311
4341.267460
4438.500285
4475.038544
4400.348793
4429.505593
4437.139667
4439.105344
4404.775082
4374.875086
4468.660553
4392.266813
4375.338526
4434.699843
4441.206102
4433.454248
4448.312651
4426.684561
4438.254356
4453.538027
4394.572849
4463.740140
4443.291437
4398.971485
4455.265966
4415.001962
4426.075399
4429.018405
4424.676082
4434.816695
4436.971527
4445.865064
4395.943080
4465.476620
4444.572449
4415.861367
4459.753889
4424.356045
4419.766603
4414.582111
4443.183619
4448.114361
4416.040417
4433.549973
4441.012821
4439.552812
4455.892210
4463.138936
4419.256423
4404.177401
4419.813940
4425.177503
4412.569911
4419.600091
4450.911444
4362.804129
4437.434868
4443.730197
4430.628904
4421.355253
4440.014360
4436.790130
4439.108541
4426.024182
4455.369346
4423.438401
4410.746529
4425.653922
4409.908565
4444.192904
4425.407370
4424.020777
4433.707110
4411.851737
4434.696780
4448.626291
4411.307384
4430.669585
4403.118317
4447.147250
4427.245628
4447.571703
4422.870281
4436.928972
4430.312803
4455.361310
4495.461535
4409.782379
4404.671243
4420.180069
4432.008341
4431.414114
4421.348054
4448.319970
4419.869056
4437.432983
4443.501068
4415.802513
4453.313378
4427.008656
4438.307158
4426.892748
4432.759114
4427.498449
4411.944837
4446.612102
4401.832371
4448.287434
4441.917633
4423.990701
4428.468071
4421.017891
4442.734372
4398.866924
4428.957614
4396.716417
4442.958961
4430.950880
4407.458155
4394.822865
4446.565790
4427.068596
4438.479056
4416.285242
4415.231776
4429.846907
4403.750078
4431.418476
4446.089665
4426.911119
4447.096066
4413.691157
4467.643303
4435.404015
4436.341924
4436.557451
4419.935743
4460.253613
4405.085152
4420.977736
4429.393739
4441.498575
4429.604174
4443.154306
4443.491540
4440.840302
4434.935386
4447.156952
4445.086942
4458.595976
4414.272595
4454.341735
4418.544543
4426.806937
4428.125759
4423.708747
4429.979269
4401.322361
4443.670364
4431.261278
4437.650627
4390.599971
4387.790327
4420.745863
4508.994394
4413.492862
4440.459616
4431.040227
4420.629504
4451.676222
4454.618364
4394.638315
4443.231688
4432.154221
4427.469941
4424.284935
4454.663306
4451.556458
4423.877091
4419.187324
4438.539894
4462.720765
4401.993645
4419.161128
4426.065762
4436.097278
4436.000831
4427.779951
4444.893919
4415.416229
4405.493617
4453.787246
4424.870515
4439.983035
4468.960354
4364.125048
4421.881752
4405.830553
4427.426262
4426.263802
4454.450225
4415.940049
4464.809140
4409.740744
4384.484307
4436.760639
4408.506893
4439.560787
4414.233269
4415.124318
4419.657975
4430.685717
4440.129205
4418.478850
4435.647756
4445.114404
4428.044808
4424.004860
4428.675069
4441.534514
4423.835149
4403.286903
4451.603287
4440.812478
4416.698566
4409.057026
4467.783835
4415.956789
4442.158766
4433.601825
4411.352804
4432.870332
4445.960112
4388.431751
4377.475636
4457.018912
4437.542551
4451.033641
4446.592318
4410.159815
4442.211776
4431.611403
4402.617723
4433.839621
4430.341950
4418.602546
4422.468939
4430.063133
4427.072927
4435.619656
4437.763872
4411.641950
4446.604885
4386.971220
4451.355583
4431.667938
4444.282272
4408.077135
4456.439262
4367.988813
4462.999361
4427.945514
4417.967094
4428.853449
4426.950265
4444.491824
4428.169190
4396.884823
4423.082212
4414.591318
4374.885764
4434.129883
4456.791700
4436.688390
4433.494729
4421.100112
4447.357310
4443.599513
4418.924979
4439.857251
4425.808405
4424.341848
4429.156249
4420.466696
4439.736089
4443.712337
4463.272161
4449.052314
4432.781151
4430.415848
4386.985411
4416.241109
4434.151334
4450.346954
4424.249366
4425.431712
4442.541982
4479.141304
4454.924971
4449.901355
4451.600246
4450.837250
4354.018681
4454.404674
4443.287908
4427.741414
4438.289328
4417.681284
4436.571272
4406.735267
4419.966987
4410.659832
4440.227322
4434.227044
4434.984054
4420.256022
4437.872034
4393.795449
4395.645997
4435.164722
4458.646944
4423.765637
4478.653919
4359.143116
4420.492724
4452.570771
4430.052755
4412.355799
4427.567742
4386.158850
4449.890988
4455.034480
4407.299996
4439.906775
4436.035639
4406.689005
4432.764107
4450.072558
4409.791243
4443.471994
4418.557630
4438.994404
4426.564628
4439.796811
4420.926564
4420.574589
4402.347015
4423.016195
4452.733080
4448.217827
4409.249911
4410.255966
4444.083840
4455.912944
4427.885785
4509.072464
4398.336518
4425.423127
4426.038957
4424.244298
4442.379932
4433.170435
4455.217675
4423.367526
4412.934827
4435.915833
4422.629829
4444.850006
4454.388304
4407.311159
4428.680220
4420.810443
4420.654957
4457.273121
4406.100102
4455.716254
4418.400531
4442.039228
4440.148029
4413.789437
4432.272262
4446.434529
4441.292603
4432.589998
4423.500306
4433.411549
4382.598757
4380.659602
4441.116332
4480.552975
4428.895778
4435.153924
4445.927657
4430.496656
4363.338975
4396.751250
4473.617071
4483.672510
4407.888746
4452.845630
4410.484729
4444.034696
4409.872308
4445.058745
4423.609736
4415.060716
4448.199672
4434.868298
4420.909346
4433.595846
4423.456404
4415.869195
4402.146865
4408.237728
4407.274362
4428.745342
4446.738038
4473.543763
4445.130834
4411.639597
4419.030411
4428.728961
4418.042236
4418.962579
4428.833481
4435.870762
4424.909313
4395.333056
4462.391306
4413.016627
4408.950610
4447.005999
4425.151451
4407.716806
4442.942010
4444.827158
4433.758846
4435.238438
4439.109552
4422.829402
4423.446604
4422.049173
4448.160194
4451.197072
4466.466771
4455.100598
4427.399218
4423.719886
4402.464601
4394.780409
4462.343510
4426.668876
4429.818797
4432.608856
4428.487959
4440.290175
4446.357746
4442.915514
4413.709523
4450.176563
4439.980132
4431.458951
4494.843471
4428.099613
4441.020672
4426.183645
4440.506674
4424.899326
4421.467018
4429.806348
4403.261408
4442.243049
4442.239096
4435.005271
4413.929743
4410.893338
4404.865952
4419.052901
4438.405544
4439.865456
4405.354103
4418.858356
4443.630504
4481.926413
4396.546378
4509.813082
4427.150247
4429.224376
4427.907494
4455.856587
4441.520973
4421.219918
4467.768789
4444.806858
4416.670586
4468.844997
4451.349695
4460.015578
4449.185428
4444.163258
4415.015551
4466.296793
4451.541851
4425.870295
4407.670341
4435.055972
4442.654290
4414.134840
4439.312249
4397.763209
4435.017656
4428.240479
4377.123393
4447.381538
4451.053142
4379.316825
4438.102366
4432.719516
4424.092204
4432.834455
4423.406404
4430.597598
4454.713059
4399.442255
4455.234525
4460.120100
4409.932696
4346.065937
4438.300339
4385.461130
4453.950205
4425.447385
4449.801150
4402.019912
4418.907925
4425.640097
4431.059635
4442.292493
4429.141944
4450.919590
4451.624055
4398.998786
4421.861892
4446.519465
4446.431369
4400.376301
4447.366234
4402.864041
4384.259649
4468.210445
4427.820400
4440.486531
4417.595833
4449.551535
4465.177827
4445.122916
4434.205077
4431.109179
4427.792529
4380.399130
4388.167051
4430.172682
4410.046956
4381.043080
4439.127876
4449.345041
4444.128199
4423.297931
4410.189014
4425.778155
4428.218917
4408.712993
4429.364470
4426.646646
4447.937087
4412.008198
4407.580905
4444.578320
4451.649298
4451.070047
4419.842731
4426.106480
4420.646173
4439.043894
4409.512194
4377.845784
4420.113508
4449.005419
4438.794873
4453.835705
4392.499051
4428.583498
4449.033563
4452.058977
4453.034733
4469.819359
4420.061485
4427.520316
4427.859247
4413.003043
4458.341361
4419.069302
4423.442162
4429.482981
4429.183658
4429.436762
4429.615132
4429.609063
4429.853859
4429.974702
4430.500074
4430.929332
4431.423217
4431.402905
4431.155141
4430.780680
4430.103636
4425.543328
4428.995258
4429.006741
4429.711528
4430.194757
4430.712729
4431.050541
4431.068245
4430.739770
4429.762715
4429.314959
4429.250108
4429.944185
4430.642272
4430.675798
4427.017961
4428.739557
4428.602102
4428.791345
4429.000820
4428.598163
4428.951949
4428.936083
4429.851404
4431.040090
4431.965287
4431.878984
4430.966165
4430.305524
4428.951685
4427.742362
4428.820918
4429.141409
4429.331932
4430.056790
4430.424993
4430.879597
4430.802495
4430.379576
4429.066716
4428.170208
4428.172734
4428.433378
4429.397483
4430.093284
4428.393632
4428.846470
4428.820844
4428.741107
4428.706036
4428.323258
4428.484981
4428.372294
4429.421454
4430.320459
4431.842231
4431.021186
4431.173559
4428.568237
4428.695214
4428.521490
4428.977022
4429.285020
4429.084432
4430.128566
4429.941382
4430.877279
4430.247574
4430.223032
4428.453710
4427.854689
4427.272639
4428.469531
4428.088727
4430.126276
4428.581835
4428.811125
4429.065303
4428.519940
4428.694586
4428.042612
4428.255499
4427.987500
4429.146345
4429.917155
4431.478228
4430.859008
4429.968628
4428.332585
4427.525086
4428.706265
4428.996461
4429.267628
4429.041344
4429.951316
4429.759170
4430.663630
4430.000231
4429.956920
4428.148146
4427.823611
4426.839110
4428.671172
4427.877635
4428.594828
4428.414702
4428.821718
4429.026476
4428.253857
4428.744474
4427.668946
4428.216198
4427.518838
4429.038793
4429.648623
4431.277845
4431.232015
4430.786152
4428.612750
4431.930138
4428.633685
4429.045757
4429.040568
4429.145651
4429.551284
4429.842114
4430.139650
4430.061745
4429.475485
4428.039456
4427.808748
4426.624809
4429.561439
4429.242524
4429.303909
4428.273015
4429.021385
4428.572475
4428.501516
4428.158364
4427.824792
4427.618201
4427.419245
4428.563985
4429.590551
4430.642684
4431.409083
4429.704654
4429.409154
4428.824126
4428.358735
4429.023848
4428.857946
4428.919093
4429.435443
4429.500816
4429.857274
4429.919120
4429.099069
4427.943073
4427.254725
4426.444871
4428.360165
4428.370082
4429.253756
4428.350217
4428.766445
4428.612195
4428.350282
4427.917873
4427.649480
4427.411443
4427.110328
4428.254755
4429.147850
4430.421595
4430.751678
4430.034423
4429.001383
4431.522418
4436.304138
4408.506873
4441.804231
4434.807755
4416.011417
4457.875954
4433.787486
4427.725315
4378.240803
4455.133111
4436.227990
4406.381967
4425.527806
4456.433084
4422.464757
4427.104599
4428.266345
4428.773960
4428.850978
4428.487622
4429.436016
4429.042574
4429.830193
4429.450557
4429.061874
4427.187302
4427.026947
4425.984846
4427.711233
4428.334311
4429.785178
4450.616223
4401.691114
4431.067771
4418.676129
4410.769841
4442.379546
4434.016220
4358.759204
4414.341728
4445.482910
4433.719733
4451.881645
4420.891131
4468.207225
4403.823773
4393.009166
4427.783653
4428.560858
4428.542468
4427.867036
4428.025768
4426.961207
4427.467729
4426.449709
4427.754949
4428.626538
4429.855809
4429.759520
4429.443415
4428.073859
4429.058438
4438.958395
4448.319328
4421.338771
4449.013635
4410.639784
4445.890312
4416.625853
4418.329618
4417.547443
4450.603590
4421.478272
4436.868257
4413.504130
4412.369710
4462.510282
4438.046104
4427.974600
4428.614722
4428.543342
4428.361420
4428.872542
4428.898906
4429.261672
4429.162445
4428.661147
4426.572348
4426.593014
4425.223597
4426.867923
4425.632544
4429.038164
4419.202406
4404.927686
4415.068166
4398.309192
4401.455195
4447.551661
4429.654732
4446.050187
4439.194661
4411.875035
4433.187766
4433.009026
4395.810162
4390.369402
4427.907612
4445.502926
4427.480093
4428.487467
4428.294251
4427.503552
4427.836135
4426.614332
4427.179320
4426.174580
4427.167422
4428.365179
4429.110515
4428.823425
4428.104722
4425.277336
4424.410997
4438.519097
4440.529115
4438.845002
4460.213979
4435.085757
4429.206509
4445.049746
4420.373469
4404.436511
4433.760732
4447.182343
4417.655584
4411.982870
4438.972483
4433.699238
4420.920591
4427.545259
4428.566931
4428.119915
4428.395368
4428.390806
4428.795557
4428.986434
4428.975721
4428.445593
4426.146990
4426.142659
4424.904960
4425.687615
4425.468746
4424.370328
4405.979490
4415.466530
4450.486969
4400.129927
4497.360219
4389.679859
4445.216563
4435.618045
4453.563620
4408.558767
4366.600963
4424.103715
4422.995433
4438.113111
4440.034395
4418.435679
4427.597405
4428.263987
4428.247283
4427.333669
4427.630744
4426.778179
4426.868213
4426.211994
4426.648822
4428.339932
4428.280325
4428.895109
4426.577627
4425.791780
4425.945259
4456.780783
4427.408488
4458.480890
4407.134195
4361.190932
4441.426431
4428.986433
4431.148739
4427.859497
4410.853935
4411.985778
4463.735754
4434.798283
4396.148620
4479.979885
4397.426146
4427.293916
4428.305902
4428.173136
4427.930623
4428.616915
4428.304966
4428.963652
4428.740146
4428.311101
4425.845828
4426.433575
4424.348532
4426.493234
4425.996757
4425.599521
4437.451169
4424.803860
4441.343107
4446.868932
4398.307542
4467.676059
4415.225982
4413.986294
4425.571613
4411.903464
4451.147603
4405.219863
4445.587701
4438.953048
4422.355264
4446.146339
4427.263486
4428.116407
4428.064253
4427.301422
4427.555745
4426.394726
4427.293477
4425.257364
4427.125279
4427.416317
4428.694939
4428.694700
4427.523038
4426.240376
4427.728334
4422.716670
4422.663814
4434.264072
4446.998327
4434.690513
4433.821273
4435.550194
4423.706394
4405.775579
4447.293689
4400.285597
4375.922309
4431.510759
4454.940519
4426.878925
4392.824309
4427.198778
4428.002665
4428.355436
4427.293016
4428.801572
4427.833988
4428.609148
4428.692598
4427.815285
4425.759571
4426.505293
4424.407754
4427.548973
4426.146913
4429.279806
4443.871698
4427.761361
4427.751587
4441.305404
4387.667658
4419.358631
4433.731046
4443.354635
4395.840187
4439.454620
4426.602243
4417.940858
4374.356696
4476.601778
4450.236748
4444.628748
4427.055200
4428.086845
4427.810205
4427.391962
4427.136816
4426.172870
4426.956892
4424.916173
4426.405090
4427.364561
4428.069528
4428.619788
4427.019813
4425.775288
4427.050082
4424.516084
4406.240758
4457.162371
4430.494486
4450.557007
4428.975555
4442.715761
4470.485761
4428.695957
4431.135558
4434.252221
4444.798148
4439.729623
4373.054310
4406.131936
4383.649255
4427.213032
4428.058156
4427.886582
4427.386837
4427.970568
4427.767283
4428.035029
4428.326000
4427.942368
4425.397214
4426.544034
4424.302411
4426.428330
4425.548871
4424.380390
4419.198443
4461.447305
4399.496829
4435.218414
4378.131825
4416.419520
4451.465310
4448.045621
4460.577304
4449.084131
4452.635677
4389.082844
4432.275464
4413.628855
4423.235592
4441.493714
4426.868441
4427.833163
4428.024246
4426.504007
4427.556460
4425.622912
4427.050242
4425.221472
4426.031522
4427.580346
4427.542319
4427.879364
4425.518598
4425.254797
4424.077905
4422.138452
4439.601123
4420.570385
4408.365750
4410.862327
4445.534505
4434.558468
4435.003819
4406.232391
4438.835885
4402.615238
4469.125915
4430.046253
4439.396684
4508.340793
4456.707278
4427.057453
4428.255425
4427.277413
4427.960052
4427.316528
4428.439203
4427.856328
4428.516952
4428.009175
4425.396560
4425.803051
4424.558354
4425.741644
4424.579789
4427.042495
4448.588815
4425.473414
4412.860842
4465.712319
4427.392347
4425.071129
4424.303788
4445.609988
4406.372849
4416.242490
4447.062054
4428.704126
4408.121654
4446.156349
4419.562599
4451.919129
4426.647060
4428.107772
4427.547057
4427.116872
4427.047642
4426.593673
4426.298585
4425.615340
4425.402594
4426.871557
4427.265499
4426.754833
4425.496580
4424.679187
4423.453129
4428.759965
4404.887203
4403.544625
4425.838295
4447.993205
4438.056866
4562.003674
4443.381007
4424.679343
4446.713003
4414.237598
4397.423953
4431.435328
4420.957290
4413.471344
4405.710965
4426.814701
4427.917972
4427.700416
4427.138209
4428.281877
4427.484861
4428.203274
4428.133271
4427.927153
4425.870892
4425.866377
4424.938635
4425.238851
4425.430055
4424.826165
4405.955465
4415.920566
4440.574727
4411.349242
4352.319771
4437.164054
4497.318847
4423.921538
4408.987452
4455.882175
4427.618571
4447.297554
4432.129559
4447.369957
4402.841237
4430.833488
4426.849424
4428.070808
4427.472724
4427.713851
4426.506150
4427.135165
4426.468700
4425.788211
4425.866119
4426.691461
4427.429209
4426.893539
4425.775475
4423.535302
4426.293388
4403.809575
4433.603717
4420.665446
4452.935900
4383.770674
4431.300536
4420.201902
4452.049954
4420.924373
4445.524260
4454.142850
4404.608831
4410.006821
4444.977678
4431.212509
4421.287518
4426.719051
4427.871060
4427.433099
4426.784352
4427.802165
4426.927533
4427.864985
4427.708311
4427.089900
4425.307196
4426.058722
4423.218704
4426.346834
4424.483645
4423.601180
4438.300211
4403.992689
4429.037819
4423.049600
4381.609105
4408.622087
4435.497944
4415.945027
4458.143129
4453.904175
4422.866031
4408.873657
4460.639729
4427.577188
4469.966583
4431.391899
4426.554912
4427.274815
4428.140990
4425.641152
4427.410321
4424.566963
4426.855954
4423.404018
4425.137447
4425.648951
4426.193287
4427.435013
4423.572112
4423.228281
4425.355396
4436.871755
4455.148648
4414.960301
4468.167871
4385.466572
4437.534482
4432.851923
4430.339304
4431.563385
4438.640004
4447.186968
4444.788324
4420.915804
4447.746964
4387.037920
4418.158052
4426.718730
4427.860107
4426.964628
4427.195025
4426.557026
4427.478518
4427.396168
4428.059803
4428.034369
4426.674611
4427.247464
4424.217675
4426.116633
4423.722270
4423.905381
4425.057227
4427.071273
4409.771577
4384.143316
4424.414092
4452.948783
4797.738303
4431.322929
4447.492088
4450.174117
4390.167457
4406.426999
4376.469158
4420.792206
4352.802625
4432.809724
4426.508803
4427.618900
4427.364132
4426.451491
4427.403649
4426.158786
4427.170465
4425.732251
4426.745774
4426.166147
4428.094825
4426.032028
4424.126439
4423.720995
4423.972416
4419.544036
4432.689836
4439.343241
4425.931026
4441.821813
4424.761128
4519.765107
4438.117189
4397.594813
4432.270909
4444.908468
4412.627494
4438.225666
4413.072296
4527.616920
4417.350352
4426.384339
4427.354061
4428.014530
4426.314206
4428.058353
4426.804960
4427.582244
4427.312770
4428.034144
4425.519742
4425.090146
4424.568677
4425.620251
4424.115203
4423.841774
4435.036973
4414.113240
4432.568828
4417.823541
4462.746748
4465.123957
4470.453652
4448.864701
4462.378492
4422.145986
4461.038054
4441.152917
4436.696826
4423.925991
4334.397915
4430.081028
4426.756117
4428.143211
4426.970356
4428.093357
4426.077365
4426.743138
4425.538760
4425.307125
4424.100974
4424.178649
4425.065426
4423.287863
4423.217424
4423.163901
4423.670967
4432.652076
4420.321087
4406.874782
4432.518472
4453.021281
4406.623138
4470.915481
4478.195103
4439.731084
4407.580227
4416.406548
4466.684178
4447.228420
4384.502480
4384.706203
4408.090798