# vtk DataFile Version 2.0
mfree iwf
ASCII

DATASET UNSTRUCTURED_GRID
POINTS 11907 float
-0.000000 0.000445 0.000000
-0.000000 0.000450 0.000000
-0.000000 0.000455 0.000000
-0.000000 0.000460 0.000000
-0.000000 0.000465 0.000000
-0.000000 0.000470 0.000000
-0.000000 0.000475 0.000000
-0.000000 0.000480 0.000000
-0.000000 0.000485 0.000000
0.000000 0.000490 0.000000
-0.000000 0.000496 0.000000
0.000002 0.000500 0.000000
0.001421 0.001120 0.000000
0.001429 0.001117 0.000000
0.001470 0.001093 0.000000
0.001474 0.001089 0.000000
0.001473 0.001089 0.000000
0.001480 0.001085 0.000000
0.001486 0.001081 0.000000
0.001482 0.001084 0.000000
0.001493 0.001075 0.000000
0.001515 0.001059 0.000000
0.001519 0.001053 0.000000
0.001521 0.001049 0.000000
0.001524 0.001045 0.000000
0.001526 0.001041 0.000000
0.001529 0.001036 0.000000
0.001531 0.001032 0.000000
0.001533 0.001028 0.000000
0.001536 0.001023 0.000000
0.001540 0.001018 0.000000
0.001556 0.001004 0.000000
0.000005 0.000445 0.000000
0.000005 0.000450 0.000000
0.000005 0.000455 0.000000
0.000005 0.000460 0.000000
0.000005 0.000465 0.000000
0.000005 0.000470 0.000000
0.000005 0.000475 0.000000
0.000005 0.000480 0.000000
0.000005 0.000485 0.000000
0.000006 0.000489 0.000000
0.000003 0.000496 0.000000
0.000006 0.000498 0.000000
0.001465 0.001094 0.000000
0.001467 0.001085 0.000000
0.001498 0.001069 0.000000
0.001503 0.001065 0.000000
0.001507 0.001062 0.000000
0.001510 0.001059 0.000000
0.001511 0.001057 0.000000
0.001513 0.001053 0.000000
0.001515 0.001049 0.000000
0.001519 0.001044 0.000000
0.001523 0.001037 0.000000
0.001525 0.001033 0.000000
0.001528 0.001026 0.000000
0.001534 0.001019 0.000000
0.001535 0.001015 0.000000
0.001539 0.001011 0.000000
0.001548 0.001005 0.000000
0.001550 0.001004 0.000000
0.001546 0.001008 0.000000
0.001554 0.001002 0.000000
0.000010 0.000445 0.000000
0.000010 0.000450 0.000000
0.000010 0.000455 0.000000
0.000010 0.000460 0.000000
0.000010 0.000465 0.000000
0.000010 0.000469 0.000000
0.000010 0.000475 0.000000
0.000010 0.000479 0.000000
0.000009 0.000486 0.000000
0.000011 0.000489 0.000000
0.000008 0.000497 0.000000
0.000011 0.000498 0.000000
0.001463 0.001091 0.000000
0.001469 0.001082 0.000000
0.001485 0.001076 0.000000
0.001491 0.001072 0.000000
0.001495 0.001069 0.000000
0.001499 0.001066 0.000000
0.001489 0.001067 0.000000
0.001496 0.001061 0.000000
0.001501 0.001058 0.000000
0.001506 0.001053 0.000000
0.001513 0.001046 0.000000
0.001517 0.001040 0.000000
0.001515 0.001034 0.000000
0.001519 0.001031 0.000000
0.001524 0.001029 0.000000
0.001531 0.001021 0.000000
0.001541 0.001009 0.000000
0.001543 0.001006 0.000000
0.001546 0.001000 0.000000
0.001546 0.000994 0.000000
0.000015 0.000445 0.000000
0.000016 0.000450 0.000000
0.000014 0.000456 0.000000
0.000017 0.000460 0.000000
0.000014 0.000469 0.000000
0.000016 0.000465 0.000000
0.000014 0.000476 0.000000
0.000017 0.000480 0.000000
0.000014 0.000484 0.000000
0.000016 0.000489 0.000000
0.000014 0.000495 0.000000
0.000016 0.000497 0.000000
0.000025 0.000500 0.000000
0.001473 0.001082 0.000000
0.001487 0.001074 0.000000
0.001480 0.001072 0.000000
0.001492 0.001064 0.000000
0.001503 0.001063 0.000000
0.001501 0.001054 0.000000
0.001508 0.001049 0.000000
0.001504 0.001047 0.000000
0.001509 0.001043 0.000000
0.001515 0.001028 0.000000
0.001520 0.001038 0.000000
0.001522 0.001023 0.000000
0.001527 0.001022 0.000000
0.001526 0.001017 0.000000
0.001530 0.001015 0.000000
0.001532 0.001009 0.000000
0.001536 0.001006 0.000000
0.001538 0.001001 0.000000
0.001544 0.000992 0.000000
0.000019 0.000445 0.000000
0.000021 0.000450 0.000000
0.000018 0.000455 0.000000
0.000022 0.000459 0.000000
0.000019 0.000469 0.000000
0.000024 0.000468 0.000000
0.000018 0.000474 0.000000
0.000022 0.000479 0.000000
0.000019 0.000486 0.000000
0.000021 0.000491 0.000000
0.000020 0.000497 0.000000
0.000022 0.000499 0.000000
0.000039 0.000500 0.000000
0.001466 0.001071 0.000000
0.001475 0.001075 0.000000
0.001481 0.001067 0.000000
0.001486 0.001070 0.000000
0.001495 0.001056 0.000000
0.001492 0.001053 0.000000
0.001503 0.001044 0.000000
0.001495 0.001050 0.000000
0.001506 0.001039 0.000000
0.001504 0.001030 0.000000
0.001507 0.001025 0.000000
0.001512 0.001023 0.000000
0.001520 0.001016 0.000000
0.001523 0.001006 0.000000
0.001531 0.001005 0.000000
0.001530 0.001000 0.000000
0.001538 0.000995 0.000000
0.001542 0.000997 0.000000
0.001540 0.000989 0.000000
0.000024 0.000445 0.000000
0.000026 0.000450 0.000000
0.000024 0.000455 0.000000
0.000026 0.000461 0.000000
0.000021 0.000464 0.000000
0.000025 0.000472 0.000000
0.000023 0.000476 0.000000
0.000027 0.000481 0.000000
0.000023 0.000485 0.000000
0.000026 0.000488 0.000000
0.000026 0.000492 0.000000
0.000027 0.000500 0.000000
0.001448 0.001107 0.000000
0.001475 0.001078 0.000000
0.001480 0.001077 0.000000
0.001490 0.001059 0.000000
0.001486 0.001061 0.000000
0.001501 0.001051 0.000000
0.001497 0.001045 0.000000
0.001488 0.001055 0.000000
0.001494 0.001040 0.000000
0.001512 0.001040 0.000000
0.001508 0.001033 0.000000
0.001510 0.001035 0.000000
0.001519 0.001026 0.000000
0.001518 0.001020 0.000000
0.001527 0.001010 0.000000
0.001523 0.001013 0.000000
0.001535 0.001000 0.000000
0.001527 0.001004 0.000000
0.001535 0.000993 0.000000
0.001535 0.000987 0.000000
0.000030 0.000445 0.000000
0.000031 0.000450 0.000000
0.000029 0.000455 0.000000
0.000031 0.000459 0.000000
0.000031 0.000464 0.000000
0.000029 0.000468 0.000000
0.000031 0.000472 0.000000
0.000030 0.000477 0.000000
0.000030 0.000486 0.000000
0.000031 0.000492 0.000000
0.000033 0.000497 0.000000
0.000030 0.000499 0.000000
0.000048 0.000500 0.000000
0.001465 0.001080 0.000000
0.001474 0.001066 0.000000
0.001482 0.001063 0.000000
0.001479 0.001062 0.000000
0.001483 0.001057 0.000000
0.001489 0.001046 0.000000
0.001499 0.001033 0.000000
0.001500 0.001040 0.000000
0.001503 0.001034 0.000000
0.001511 0.001027 0.000000
0.001509 0.001014 0.000000
0.001515 0.001019 0.000000
0.001514 0.001014 0.000000
0.001518 0.001004 0.000000
0.001520 0.001010 0.000000
0.001524 0.000996 0.000000
0.001530 0.000996 0.000000
0.001531 0.000990 0.000000
0.001532 0.000984 0.000000
0.000035 0.000445 0.000000
0.000035 0.000450 0.000000
0.000034 0.000457 0.000000
0.000039 0.000454 0.000000
0.000035 0.000467 0.000000
0.000037 0.000472 0.000000
0.000032 0.000479 0.000000
0.000041 0.000479 0.000000
0.000035 0.000483 0.000000
0.000034 0.000488 0.000000
0.000037 0.000491 0.000000
0.000036 0.000498 0.000000
0.001408 0.001122 0.000000
0.001443 0.001109 0.000000
0.001471 0.001070 0.000000
0.001474 0.001060 0.000000
0.001485 0.001049 0.000000
0.001474 0.001050 0.000000
0.001492 0.001046 0.000000
0.001488 0.001041 0.000000
0.001496 0.001039 0.000000
0.001486 0.001031 0.000000
0.001493 0.001022 0.000000
0.001501 0.001016 0.000000
0.001509 0.001019 0.000000
0.001512 0.001008 0.000000
0.001522 0.001001 0.000000
0.001510 0.000995 0.000000
0.001523 0.000989 0.000000
0.001525 0.000994 0.000000
0.001528 0.000987 0.000000
0.001527 0.000981 0.000000
0.000040 0.000445 0.000000
0.000040 0.000450 0.000000
0.000037 0.000462 0.000000
0.000039 0.000458 0.000000
0.000042 0.000462 0.000000
0.000039 0.000468 0.000000
0.000041 0.000473 0.000000
0.000037 0.000477 0.000000
0.000041 0.000488 0.000000
0.000042 0.000491 0.000000
0.000041 0.000497 0.000000
0.000044 0.000498 0.000000
0.001253 0.001108 0.000000
0.001463 0.001087 0.000000
0.001463 0.001076 0.000000
0.001469 0.001058 0.000000
0.001483 0.001053 0.000000
0.001479 0.001048 0.000000
0.001483 0.001045 0.000000
0.001492 0.001034 0.000000
0.001497 0.001027 0.000000
0.001502 0.001025 0.000000
0.001495 0.001029 0.000000
0.001494 0.001013 0.000000
0.001502 0.001007 0.000000
0.001506 0.001004 0.000000
0.001515 0.001009 0.000000
0.001512 0.001003 0.000000
0.001517 0.000999 0.000000
0.001519 0.000993 0.000000
0.001524 0.000985 0.000000
0.001523 0.000979 0.000000
0.000044 0.000445 0.000000
0.000046 0.000450 0.000000
0.000045 0.000456 0.000000
0.000046 0.000462 0.000000
0.000044 0.000467 0.000000
0.000047 0.000474 0.000000
0.000045 0.000478 0.000000
0.000040 0.000483 0.000000
0.000051 0.000485 0.000000
0.000046 0.000483 0.000000
0.000048 0.000493 0.000000
0.000050 0.000498 0.000000
0.001260 0.001111 0.000000
0.001461 0.001097 0.000000
0.001476 0.001069 0.000000
0.001477 0.001055 0.000000
0.001473 0.001054 0.000000
0.001485 0.001038 0.000000
0.001480 0.001038 0.000000
0.001488 0.001036 0.000000
0.001486 0.001025 0.000000
0.001498 0.001021 0.000000
0.001504 0.001021 0.000000
0.001506 0.001010 0.000000
0.001500 0.001012 0.000000
0.001508 0.001000 0.000000
0.001515 0.000998 0.000000
0.001514 0.000991 0.000000
0.001514 0.000989 0.000000
0.001517 0.000986 0.000000
0.001519 0.000982 0.000000
0.001519 0.000976 0.000000
0.000049 0.000445 0.000000
0.000053 0.000450 0.000000
0.000048 0.000454 0.000000
0.000053 0.000455 0.000000
0.000048 0.000465 0.000000
0.000048 0.000470 0.000000
0.000053 0.000468 0.000000
0.000051 0.000478 0.000000
0.000047 0.000488 0.000000
0.000052 0.000491 0.000000
0.000057 0.000492 0.000000
0.000053 0.000498 0.000000
0.001351 0.001129 0.000000
0.001452 0.001096 0.000000
0.001460 0.001084 0.000000
0.001468 0.001060 0.000000
0.001474 0.001045 0.000000
0.001480 0.001043 0.000000
0.001472 0.001039 0.000000
0.001477 0.001034 0.000000
0.001481 0.001024 0.000000
0.001490 0.001028 0.000000
0.001488 0.001023 0.000000
0.001495 0.001018 0.000000
0.001493 0.001004 0.000000
0.001505 0.001014 0.000000
0.001501 0.000996 0.000000
0.001501 0.000990 0.000000
0.001505 0.000998 0.000000
0.001511 0.000985 0.000000
0.001515 0.000980 0.000000
0.001515 0.000974 0.000000
0.000053 0.000445 0.000000
0.000058 0.000450 0.000000
0.000055 0.000462 0.000000
0.000050 0.000459 0.000000
0.000060 0.000466 0.000000
0.000053 0.000473 0.000000
0.000058 0.000476 0.000000
0.000057 0.000481 0.000000
0.000052 0.000483 0.000000
0.000057 0.000486 0.000000
0.000056 0.000497 0.000000
0.000059 0.000496 0.000000
0.001374 0.001127 0.000000
0.001461 0.001098 0.000000
[...]
POINT_DATA 11907
SCALARS density float 1
LOOKUP_TABLE default
4427.702566
4429.637114
4424.572087
4428.338891
4430.236612
4426.702283
4436.365501
4428.448568
4434.307403
4422.744699
4429.361203
4405.261094
4429.273623
4424.274545
4417.924979
4441.663172
4438.285440
4439.945998
4448.941104
4454.540741
4426.467287
4412.374803
4403.383297
4447.303349
4424.675661
4433.375861
4451.250371
4423.929247
4437.820488
4451.621784
4422.647384
4404.386595
4431.033399
4433.689774
4430.574600
4428.111230
4434.317668
4422.735289
4427.531238
4420.291663
4414.297813
4427.028611
4449.672079
4408.798179
4418.285671
4423.599475
4426.400602
4414.521738
4427.404322
4440.875566
4449.721756
4465.623279
4443.525923
4412.557200
4420.160855
4398.293460
4432.643214
4390.311724
4459.060240
4461.572957
4430.276588
4431.748242
4418.496384
4400.657992
4420.538428
4424.887486
4433.119517
4418.846712
4430.022199
4421.231629
4451.464559
4400.248799
4474.206552
4380.927097
4449.214854
4402.974606
4466.869322
4443.770313
4432.216229
4403.183966
4418.539517
4414.146482
4464.093083
4440.224423
4429.156105
4372.351870
4421.066787
4449.044646
4388.475307
4452.098365
4425.885342
4374.331716
4421.128385
4421.937986
4445.306969
4412.947331
4426.153118
4439.446686
4446.499280
4420.148120
4421.731771
4451.851161
4455.832351
4383.476381
4464.342824
4390.421646
4509.569245
4404.481337
4436.217417
4388.217521
4413.186765
4468.777335
4446.258179
4442.151251
4434.686119
4382.773091
4452.989376
4432.130100
4432.705654
4436.282963
4390.286603
4492.495076
4433.122521
4472.191284
4391.304911
4365.126919
4502.757934
4438.066150
4435.699625
4419.008013
4437.646713
4429.160412
4404.716027
4442.961329
4430.958463
4444.318543
4477.922370
4371.590954
4467.012053
4435.149842
4419.628421
4437.031398
4464.678397
4392.629514
4457.878571
4416.098549
4445.403253
4434.520869
4430.540242
4383.216580
4406.095337
4433.607963
4420.942300
4427.157652
4455.778252
4501.106444
4389.268610
4401.826868
4391.785275
4429.781659
4431.166042
4434.133185
4436.077152
4417.422914
4436.030106
4420.511488
4456.239070
4372.862986
4425.973338
4467.459242
4413.737878
4426.433384
4436.963195
4434.609750
4364.049577
4438.098753
4408.234945
4462.425292
4363.508389
4450.652263
4436.904618
4444.142893
4453.427785
4449.217560
4445.839142
4429.431024
4402.822136
4409.462509
4424.099193
4424.957176
4468.709512
4420.927299
4426.519953
4431.237552
4418.842355
4432.243931
4425.665959
4446.717106
4386.828503
4450.056245
4448.735644
4416.744906
4451.234454
4421.142499
4413.573644
4445.834950
4464.377500
4458.071490
4413.841485
4422.684632
4428.226462
4394.618612
4450.581517
4448.405663
4414.628061
4440.529846
4461.135177
4392.705291
4405.104113
4443.504288
4467.086978
4415.073332
4405.363425
4448.379971
4433.170664
4426.473491
4437.795820
4415.904090
4436.803482
4437.296479
4453.806983
4421.141723
4395.912057
4429.172299
4418.101403
4442.957281
4414.568849
4423.030999
4388.627607
4419.828832
4425.413047
4460.885165
4472.498976
4414.655993
4449.065687
4423.762086
4389.593573
4426.303666
4402.152335
4450.364387
4402.975236
4397.635531
4426.132100
4435.105781
4414.590202
4426.968065
4430.309872
4433.083009
4414.736752
4444.385989
4414.189624
4433.269769
4433.693777
4422.340978
4448.022869
4431.332523
4433.590514
4420.814683
4436.311566
4456.523179
4391.358500
4443.258555
4435.339660
4445.886593
4443.371232
4402.564290
4431.399793
4428.578367
4468.896108
4414.610057
4426.161194
4415.057112
4423.946134
4434.853354
4450.053668
4382.815434
4445.420280
4422.408963
4423.789988
4425.027282
4421.201517
4471.029487
4409.182739
4439.953825
4434.076314
4438.932884
4453.401347
4420.023903
4480.180669
4428.589548
4433.665070
4437.558411
4407.961707
4443.365272
4406.312487
4419.073161
4433.593885
4462.369773
4429.575354
4422.043677
4432.942148
4421.257320
4427.884195
4452.574972
4437.805470
4454.994675
4446.107500
4431.273416
4419.413910
4442.931160
4429.389541
4402.809560
4461.842804
4432.839011
4416.510657
4449.632933
4409.519135
4376.842806
4375.742938
4420.742317
4519.934418
4409.879699
4440.645840
4435.268095
4402.941346
4440.715076
4365.074587
4436.450408
4420.169685
4403.637495
4419.935128
4428.572886
4475.672660
4458.221537
4400.742799
4444.085344
4455.288495
4427.445775
4411.927853
4407.126983
4429.976432
4424.746773
4439.243044
4433.254280
4465.299036
4403.319975
4413.912697
4450.549794
4419.082497
4425.528504
4476.910240
4354.758269
4418.628633
4403.484769
4434.220978
4427.772005
4441.864717
4416.486093
4438.102536
4476.999085
4407.760645
4448.178486
4449.144105
4407.948927
4423.128833
4411.721942
4444.112165
4448.206661
4457.626012
4405.178687
4461.925354
4420.809910
4437.758923
4422.953116
4418.610806
4404.653049
4449.536258
4433.915305
4400.179245
4438.529324
4431.405381
4391.940934
4444.805263
4426.164640
4436.665754
4431.899219
4421.045379
4434.432690
4425.254540
4383.496847
4415.733469
4463.335315
4448.726384
4464.320518
4418.253804
4457.013698
4442.076676
4445.764169
4422.234407
4463.676931
4412.240597
4414.262169
4433.043070
4398.210187
4441.710461
4434.174155
4443.507124
4443.165118
4418.793299
4445.206479
4446.094749
4414.771822
4407.816320
4446.121930
4462.301385
4429.034995
4424.025547
4430.156280
4417.994098
4425.865719
4402.867984
4367.745082
4403.578370
4403.732156
4418.799659
4388.492871
4439.758842
4435.843947
4465.711402
4437.738036
4424.986925
4458.196657
4392.431905
4410.790264
4443.839470
4449.135962
4419.602013
4423.460666
4417.289173
4433.635577
4435.228574
4455.462868
4409.241294
4426.062862
4419.964467
4448.783006
4418.026924
4423.090932
4434.906832
4451.819458
4425.365525
4438.690491
4423.895604
4465.539088
4444.345872
4461.937759
4418.274316
4473.525254
4394.193659
4411.201164
4397.044814
4421.274604
4453.044495
4442.927316
4409.506564
4416.859426
4434.526464
4423.409348
4431.499451
4436.705077
4436.556430
4439.515032
4418.609539
4424.763300
4417.810493
4442.932227
4447.892140
4440.925905
4439.714872
4404.961413
4382.408691
4443.360670
4422.699393
4423.366945
4433.731825
4450.004425
4435.550372
4418.758463
4394.010644
4452.490157
4377.483288
4399.349645
4426.989670
4427.280704
4410.842161
4445.269489
4409.215232
4438.231433
4452.530563
4397.621910
4445.554578
4413.711248
4435.413034
4431.367317
4444.377418
4407.144764
4437.673368
4416.873626
4417.680565
4454.639436
4425.828149
4380.536018
4413.419967
4428.297901
4421.642309
4423.281600
4430.621369
4440.840384
4468.092537
4424.004781
4423.593008
4449.037423
4431.890600
4447.352501
4393.023719
4458.976913
4421.337401
4431.780053
4439.833188
4440.467482
4399.049647
4447.513500
4434.294934
4446.521735
4431.847898
4432.616876
4411.496079
4436.759335
4424.800382
4434.068612
4428.070934
4432.796804
4408.517131
4495.140864
4440.096800
4455.895577
4424.454107
4430.811391
4443.666932
4434.815516
4468.720827
4432.194778
4509.431517
4483.378231
4425.164073
4441.540747
4410.213546
4422.773653
4443.718284
4409.386118
4413.082842
4431.631862
4462.114158
4442.155618
4408.930698
4438.052551
4426.481749
4422.333118
4444.047065
4473.821275
4435.085984
4431.056731
4441.756038
4471.007743
4442.591342
4428.908041
4391.722590
4416.652120
4417.511364
4430.493131
4426.918839
4441.927223
4424.717288
4436.501849
4432.242819
4397.180947
4430.257208
4442.530826
4462.133141
4380.287866
4461.119795
4419.217085
4422.734883
4431.759516
4405.476327
4411.698606
4410.701796
4431.699163
4440.736657
4417.000312
4416.688776
4428.206581
4429.968634
4411.621954
4434.836238
4422.031796
4429.120873
4445.394937
4437.731045
4429.713316
4401.947079
4439.350239
4443.876257
4455.484173
4429.792272
4454.789544
4445.088556
4420.507300
4477.727950
4424.951601
4406.703555
4404.263109
4407.296977
4397.800789
4448.634027
4455.653536
4421.584495
4458.185915
4445.247462
4433.825405
4427.973544
4429.024398
4451.099960
4384.648646
4396.783070
4434.371865
4401.263621
4429.927230
4430.291874
4447.396047
4409.186859
4513.784021
4425.841790
4419.046973
4400.747025
4468.645332
4439.715580
4435.615637
4350.679092
4426.596687
4407.106259
4451.133632
4476.634471
4439.928740
4455.688513
4458.586342
4420.213053
4383.341182
4435.779896
4423.488798
4400.433796
4434.494354
4434.480839
4419.142002
4438.876341
4427.483393
4427.850752
4415.856567
4417.798104
4440.091412
4477.696646
4361.220054
4434.124302
4426.211846
4438.979632
4423.741025
4432.941813
4425.770548
4445.882957
4443.454653
4451.397946
4432.603673
4425.640296
4338.561607
4466.888370
4444.852683
4438.139038
4439.272677
4411.828370
4458.302940
4433.282558
4432.957553
4438.696501
4431.667994
4415.273029
4441.697577
4424.629927
4432.724083
4439.707456
4437.843979
4429.396938
4471.760180
4425.433571
4418.455876
4379.117278
4468.372952
4419.982217
4462.230721
4427.716649
4449.615891
4429.092336
4426.331648
4429.563105
4436.017515
4437.524344
4398.846004
4361.216833
4478.465146
4430.579983
4392.796976
4459.962260
4440.295484
4457.158428
4428.321451
4437.940228
4417.367835
4442.827212
4431.303983
4412.469529
4442.373958
4433.615375
4432.558988
4412.550376
4410.951226
4404.217491
4450.731016
4443.191307
4430.773745
4442.903626
4420.182345
4417.633114
4418.777449
4355.986650
4390.182667
4420.127906
4409.059823
4375.791319
4450.087322
4425.831091
4378.788926
4444.465595
4446.453555
4408.751251
4400.870750
4409.033920
4464.791606
4434.145187
4432.981544
4429.374562
4430.529197
4430.811419
4431.014819
4430.852914
4430.314557
4429.879736
4429.457164
4429.567250
4430.150013
4431.292412
4431.706111
4431.386531
4430.991672
4430.517529
4429.956824
4430.448909
4429.350286
4428.934415
4429.512538
4430.643117
4432.089729
4433.034443
4433.306790
4431.961130
4429.580543
4428.229719
4428.887335
4430.334855
4430.895087
4429.925529
4430.326019
4431.403087
4432.139777
4431.749166
4430.334262
4428.943392
4427.617104
4427.520948
4428.691132
4431.797745
4433.249466
4431.734780
4430.090320
4428.990195
4430.501353
4430.221840
4429.064349
4428.382625
4428.759778
4430.332649
4431.691155
4433.406121
4433.353411
4432.226949
4428.959088
4426.916566
4427.598284
4428.886754
4428.896629
4430.234044
4429.937167
4431.478128
4432.046139
4431.785384
4430.114122
4428.745910
4426.879605
4426.979482
4428.033824
4431.301303
4433.105522
4432.135906
4429.511346
4429.901584
4430.323024
4429.871417
4429.258941
4427.553535
4429.065769
4429.442703
4431.987249
4432.438198
4433.905520
4430.914226
4429.739957
4425.822511
4428.802561
4429.027197
4430.161239
4429.970194
4429.841966
4431.307791
4431.901608
4431.610349
4429.861973
4428.474252
4426.600060
4426.617180
4427.943054
4430.729121
4433.014469
4431.534586
4429.334538
4429.555276
4430.077789
4429.945955
4428.805585
4427.790172
4428.303589
4429.846340
4431.076977
4432.928197
4432.882063
4431.525279
4428.808851
4426.008798
4427.723583
4428.568369
4429.548972
4429.436260
4429.872010
4430.966476
4431.722119
4431.528789
4429.525332
4428.421094
4426.180754
4426.631256
4427.433959
4430.715210
4432.825165
4431.561608
4430.188917
4430.362618
4429.905318
4429.673838
4428.795804
4427.362616
4428.396703
4429.297051
4431.253833
4432.266355
4432.960263
4430.834397
4429.054464
4425.535005
4428.448674
4428.230322
4430.075467
4429.319832
4429.723071
4430.872378
4431.587099
4431.099545
4429.633286
4427.776994
4426.370972
4426.293728
4427.230312
4430.323470
4432.619648
4430.911652
4428.371299
4427.372124
4429.605386
4429.811901
4428.266663
4427.389436
4427.943251
4429.167478
4430.894558
4432.289829
4432.301918
4431.162156
4428.074409
4425.860283
4426.715566
4427.675770
4428.485167
4429.127723
4429.562295
4430.669381
4431.415097
4430.763095
4429.500618
4427.578282
4426.089913
4426.343193
4426.844829
4430.199491
4432.609567
4431.565964
4429.880695
4429.105065
4447.170985
4431.833806
4388.589289
4421.166963
4452.435654
4455.613216
4431.807390
4403.376254
4404.386326
4469.697865
4461.176925
4412.926822
4468.733938
4481.385385
4452.499533
4424.817453
4429.295375
4429.507687
4428.353517
4426.729217
4428.108653
4428.626485
4430.873901
4431.911663
4432.063109
4430.526980
4428.817600
4425.287054
4428.428664
4429.760511
4433.343886
4440.715512
4394.679745
4428.947290
4408.830285
4413.185487
4439.707570
4433.293856
4449.728916
4390.194818
4386.170182
4438.117703
4423.951587
4434.674779
4344.214732
4481.408720
4409.540805
4428.670902
4429.403249
4430.422786
4431.067508
4430.734619
4428.970595
4427.812601
4425.446928
4426.611201
4426.633651
4429.454641
4432.881966
4431.030771
4429.431230
4430.613138
4436.079462
4424.412659
4443.191790
4436.709775
4431.707003
4450.179824
4410.196030
4413.356214
4406.428895
4435.139042
4459.799992
4415.920118
4436.338392
4460.524775
4420.822244
4412.247118
4429.028914
4429.545303
4427.893359
4426.857413
4427.481098
4429.091018
4429.961849
4432.363882
4430.739155
4430.692126
4428.633931
4424.251932
4427.657124
4427.010791
4427.969062
4427.668236
4396.999424
4410.219603
4407.644365
4393.744467
4451.375206
4442.178191
4393.085029
4414.254108
4436.743183
4427.349339
4443.268527
4415.333210
4407.161781
4436.778279
4451.354598
4428.536086
4429.471809
4429.996497
4431.092173
4430.407033
4429.032363
4427.501674
4425.325802
4426.414180
4426.209822
4428.744584
4432.910908
4429.045595
4427.737923
4427.471987
4437.668052
4433.255890
4442.254285
4456.236677
4434.609396
4437.245759
4439.388965
4493.383574
4411.723642
4446.693205
4391.039060
4444.564686
4444.878426
4418.923684
4432.899101
4418.993990
4428.570879
4429.298775
4427.874163
4426.627039
4427.460309
4428.910503
4430.023164
4431.941174
4430.455741
4430.368203
4428.225100
4424.032470
4427.251202
4426.720725
4426.317611
4420.492102
4425.401378
4423.512242
4380.527791
4484.046246
4400.984462
4424.036189
4449.793023
4460.749966
4385.892851
4402.688264
4444.619218
4444.671070
4427.094333
4450.336046
4419.865905
4428.582038
4429.475658
4429.753554
4431.033857
4430.139275
4429.182942
4427.011959
4425.805278
4426.162607
4426.185681
4428.487955
4432.836803
4428.801748
4428.528610
4428.140980
4424.153189
4398.853850
4456.188569
4449.113752
4339.290868
4440.853750
4421.516783
4422.500644
4421.831773
4444.164858
4422.575714
4442.182724
4396.744633
4460.581561
4461.201978
4424.305009
4428.305406
4429.300611
4427.502468
4426.748884
4427.019991
4428.856353
4429.815240
4431.876311
4430.189819
4430.533656
4428.010377
4424.515561
4427.115451
4427.312148
4426.046136
4430.603985
4406.240716
4383.097899
4374.246352
4382.128436
4483.771831
4443.746294
4422.271105
4429.797851
4435.986084
4438.558671
4408.341704
4417.248174
4394.353285
4468.473651
4410.177780
4428.316900
4429.234907
4429.728013
4430.555324
4430.298950
4428.609813
4427.206070
4425.715692
4426.737435
4425.834786
4428.822627
4432.807570
4429.851195
4428.903533
4428.853324
4441.665184
4447.945100
4392.234826
4404.324055
4445.580556
4435.118927
4433.520091
4428.617037
4487.780825
4463.314536
4405.033859
4414.146798
4459.927505
4396.260669
4429.783303
4402.711643
4428.264141
4428.879350
4427.705118
4426.378393
4427.189318
4428.381423
4429.908139
4431.409278
4430.421206
4430.049527
4428.417998
4424.612467
4427.874118
4427.022348
4428.772379
4443.267407
4426.447610
4434.289464
4435.474833
4379.917071
4419.450483
4429.038642
4441.766301
4380.356940
4439.162845
4442.234338
4480.783508
4381.957181
4406.870296
4423.217937
4445.096949
4428.175973
4429.096903
4429.525274
4430.383670
4430.266322
4428.314366
4427.192310
4425.971913
4426.929060
4425.656301
4428.497248
4432.801100
4430.051118
4429.306825
4427.925246
4417.988641
4430.978780
4427.191772
4446.441466
4443.900119
4433.345114
4440.934314
4476.003339
4419.285788
4447.092162
4392.671555
4419.221434
4453.824238
4389.514739
4466.351953
4412.801739
4428.093909
4428.964140
4427.415409
4426.765157
4426.613599
4428.861993
4429.185557
4431.524596
4429.987619
4430.073507
4427.571394
4424.779184
4426.055645
4426.878226
4425.384032
4434.083584
4477.181231
4435.931783
4392.515767
4415.764899
4422.856353
4444.829754
4413.129538
4471.796738
4462.269196
4434.977533
4439.071437
4447.622304
4420.725747
4427.150637
4413.313682
4428.000148
4429.342714
4428.962204
4430.718320
4430.031772
4428.375151
4427.033229
4426.524619
4426.571153
4425.715432
4427.649913
4432.277953
4428.443827
4427.744136
4426.220038
4420.745542
4439.845197
4431.392933
4447.076882
4405.561425
4439.626827
4443.650033
4431.603030
4454.090850
4424.528154
4418.175912
4434.688256
4436.877133
4372.035596
4468.422003
4442.288722
4427.839427
4429.114658
4427.242500
4426.926283
4426.433749
4429.076100
4428.945530
4431.410180
4429.641769
4429.873469
4427.223599
4424.800633
4425.749711
4425.598036
4426.484217
4414.935426
4440.011367
4410.374004
4450.904899
4442.136315
4427.611956
4436.562010
4427.467726
4425.695645
4431.657044
4415.352453
4400.144133
4389.227473
4423.480797
4385.808421
4441.675483
4427.840765
4429.365535
4428.832076
4430.856544
4429.710916
4428.368019
4426.860136
4427.041341
4426.502373
4425.957556
4427.399414
4431.729739
4428.387751
4427.268560
4425.610904
4430.413964
4425.770078
4414.478855
4420.938046
4414.879531
4408.976926
4425.334444
4444.380357
4436.681751
4431.486565
4445.389098
4428.564411
4435.629632
4461.570843
4422.835310
4402.407648
4428.051303
4428.976457
4427.458636
4426.686465
4426.803275
4428.465982
4429.112584
4431.525783
4429.487194
4429.873486
4427.346291
4425.335214
4425.563025
4425.597587
4424.623609
4423.855005
4424.907437
4424.598551
4430.028913
4418.572716
4441.170527
4423.398142
4428.934539
4415.525489
4448.441478
4468.561899
4430.316512
4453.012121
4445.775409
4475.837724
4428.410043
4427.975516
4429.131271
4429.135090
4430.525808
4429.685765
4428.210739
4427.172562
4426.839682
4427.502381
4425.804601
4427.203926
4431.944404
4429.019731
4427.296095
4426.356189
4430.320909
4415.799470
4444.540814
4438.876773
4387.810208
4435.601149
4450.677642
4431.452163
4452.305989
4411.342547
4480.755068
4427.461123
4404.449922
4435.680424
4435.137122
4423.979858
4428.355765
4429.037248
4427.493444
4426.857190
4426.725391
4428.434877
4428.991691
4431.520675
4429.790534
4429.328160
4428.143115
4425.036944
4426.496100
4425.216069
4425.924446
4440.547397
4445.346947
4436.763600
4449.204464
4391.183840
4417.437620
4444.348919
4384.133198
4452.746892
4438.265704
4441.742724
4436.997146
4439.308045
4456.205157
4394.241707
4409.450559
4428.140690
4428.879428
4429.333124
4430.116876
4430.289266
4427.520426
4427.854043
4426.787887
4427.981959
4425.550939
4427.422696
4432.444604
4427.924800
4426.828424
4426.783602
4444.426312
4444.837340
4414.246345
4464.918720
4390.242086
4436.404736
4437.975396
4418.421946
4468.092289
4446.290583
4460.756657
4395.764153
4407.135157
4471.616246
4406.423441
4428.474537
4428.221552
4429.387392
4427.404395
4427.200393
4426.416094
4429.397549
4428.568676
4431.357357
4430.515666
4429.528549
4427.524668
4425.958641
4425.435215
4424.949794
4424.544554
4435.658879
4441.486220
4414.336473
4375.876825
4429.633423
4443.129457
4440.050877
4426.036304
4389.675738
4446.770759
4405.923173
4413.543244
4438.618691
4374.496897
4412.214165
4448.013950
4428.183961
4429.349447
4428.492606
4431.175087
4429.830760
4428.469852
4427.675070
4428.584746
4427.000152
4425.874667
4428.442443
4431.054811
4427.986473
4427.463579
4426.521492
4419.957934
4413.724755
4407.978879
4423.666711
4449.605698
4428.578035
4433.559680
4495.737675
4403.395512
4408.566543
4429.042692
4414.881807
4487.957381
4413.789213
4552.462832
4416.816719
4428.295376
4429.231135
4428.012321
4426.889838
4427.224031
4428.905556
4428.579279
4431.590713
4430.467144
4429.076619
4427.603757
4427.204970
4426.568296
4425.955322
4423.547695
4443.209950
4418.633059
4438.820332
4424.286765
4455.588825
4467.453570
4436.162969
4456.223170
4473.983384
4426.600232
4449.943189
4441.473182
4454.797720
4452.998330
4277.706195
4428.007202
4428.601313
4429.516014
4428.598912
4431.032515
4429.538594
4428.263193
4427.315362
4428.845959
4426.661788
4427.101950
4428.356602
4430.529739
4427.222670
4427.682642
4424.990842
4426.902757
4393.329218
4387.332520
4399.216361
4448.034595
4411.837788
4439.888296
4439.668395
4437.926830
4434.243027
4396.583628
4442.813332
4446.904435
4421.175123
4386.576349
4406.471369