# vtk DataFile Version 2.0
mfree iwf
ASCII

DATASET UNSTRUCTURED_GRID
POINTS 8142 float
0.000002 0.000446 0.000000
0.000002 0.000451 0.000000
0.000002 0.000456 0.000000
0.000002 0.000461 0.000000
0.000002 0.000466 0.000000
0.000002 0.000471 0.000000
0.000002 0.000476 0.000000
0.000002 0.000481 0.000000
0.000003 0.000486 0.000000
0.000003 0.000491 0.000000
0.000002 0.000497 0.000000
0.000004 0.000501 0.000000
0.000031 0.000507 0.000000
0.000031 0.000514 0.000000
0.000031 0.000518 0.000000
0.000031 0.000525 0.000000
0.000031 0.000528 0.000000
0.000031 0.000534 0.000000
0.000031 0.000539 0.000000
0.000031 0.000544 0.000000
0.000031 0.000549 0.000000
0.000031 0.000555 0.000000
0.000031 0.000560 0.000000
0.000031 0.000565 0.000000
0.000031 0.000570 0.000000
0.000031 0.000575 0.000000
0.000031 0.000580 0.000000
0.000031 0.000585 0.000000
0.000031 0.000590 0.000000
0.000031 0.000596 0.000000
0.000031 0.000603 0.000000
0.000031 0.000620 0.000000
0.000007 0.000446 0.000000
0.000007 0.000451 0.000000
0.000007 0.000456 0.000000
0.000007 0.000461 0.000000
0.000007 0.000466 0.000000
0.000007 0.000471 0.000000
0.000007 0.000476 0.000000
0.000007 0.000481 0.000000
0.000007 0.000486 0.000000
0.000009 0.000490 0.000000
0.000006 0.000497 0.000000
0.000008 0.000499 0.000000
0.000035 0.000512 0.000000
0.000035 0.000517 0.000000
0.000036 0.000523 0.000000
0.000036 0.000530 0.000000
0.000036 0.000536 0.000000
0.000036 0.000541 0.000000
0.000036 0.000546 0.000000
0.000036 0.000551 0.000000
0.000036 0.000557 0.000000
0.000036 0.000562 0.000000
0.000036 0.000568 0.000000
0.000036 0.000573 0.000000
0.000036 0.000579 0.000000
0.000036 0.000584 0.000000
0.000036 0.000591 0.000000
0.000035 0.000597 0.000000
0.000035 0.000604 0.000000
0.000033 0.000609 0.000000
0.000033 0.000612 0.000000
0.000031 0.000616 0.000000
0.000011 0.000446 0.000000
0.000012 0.000451 0.000000
0.000011 0.000456 0.000000
0.000012 0.000461 0.000000
0.000011 0.000466 0.000000
0.000013 0.000471 0.000000
0.000012 0.000476 0.000000
0.000013 0.000481 0.000000
0.000012 0.000486 0.000000
0.000014 0.000491 0.000000
0.000011 0.000497 0.000000
0.000014 0.000499 0.000000
0.000040 0.000511 0.000000
0.000041 0.000514 0.000000
0.000039 0.000521 0.000000
0.000041 0.000528 0.000000
0.000040 0.000532 0.000000
0.000041 0.000536 0.000000
0.000040 0.000542 0.000000
0.000041 0.000547 0.000000
0.000041 0.000552 0.000000
0.000041 0.000558 0.000000
0.000041 0.000563 0.000000
0.000040 0.000569 0.000000
0.000041 0.000573 0.000000
0.000040 0.000580 0.000000
0.000040 0.000585 0.000000
0.000040 0.000592 0.000000
0.000038 0.000599 0.000000
0.000039 0.000606 0.000000
0.000036 0.000613 0.000000
0.000037 0.000618 0.000000
0.000016 0.000446 0.000000
0.000017 0.000450 0.000000
0.000016 0.000456 0.000000
0.000018 0.000460 0.000000
0.000016 0.000466 0.000000
0.000018 0.000470 0.000000
0.000016 0.000476 0.000000
0.000019 0.000480 0.000000
0.000016 0.000486 0.000000
0.000019 0.000490 0.000000
0.000017 0.000496 0.000000
0.000019 0.000499 0.000000
0.000027 0.000500 0.000000
0.000043 0.000519 0.000000
0.000044 0.000524 0.000000
0.000046 0.000528 0.000000
0.000046 0.000536 0.000000
0.000043 0.000541 0.000000
0.000047 0.000546 0.000000
0.000043 0.000552 0.000000
0.000048 0.000557 0.000000
0.000044 0.000563 0.000000
0.000046 0.000568 0.000000
0.000044 0.000575 0.000000
0.000045 0.000580 0.000000
0.000044 0.000586 0.000000
0.000043 0.000592 0.000000
0.000043 0.000597 0.000000
0.000043 0.000601 0.000000
0.000041 0.000608 0.000000
0.000043 0.000612 0.000000
0.000041 0.000618 0.000000
0.000021 0.000446 0.000000
0.000022 0.000450 0.000000
0.000021 0.000456 0.000000
0.000022 0.000460 0.000000
0.000021 0.000466 0.000000
0.000023 0.000470 0.000000
0.000021 0.000476 0.000000
0.000023 0.000480 0.000000
0.000021 0.000486 0.000000
0.000023 0.000490 0.000000
0.000023 0.000498 0.000000
0.000024 0.000499 0.000000
0.000035 0.000503 0.000000
0.000047 0.000517 0.000000
0.000051 0.000520 0.000000
0.000049 0.000529 0.000000
0.000048 0.000534 0.000000
0.000051 0.000538 0.000000
0.000048 0.000545 0.000000
0.000050 0.000550 0.000000
0.000048 0.000555 0.000000
0.000049 0.000561 0.000000
0.000049 0.000566 0.000000
0.000049 0.000573 0.000000
0.000049 0.000578 0.000000
0.000048 0.000584 0.000000
0.000048 0.000590 0.000000
0.000048 0.000596 0.000000
0.000046 0.000604 0.000000
0.000047 0.000608 0.000000
0.000046 0.000613 0.000000
0.000046 0.000619 0.000000
0.000026 0.000446 0.000000
0.000027 0.000450 0.000000
0.000026 0.000456 0.000000
0.000027 0.000460 0.000000
0.000027 0.000466 0.000000
0.000027 0.000471 0.000000
0.000027 0.000476 0.000000
0.000028 0.000480 0.000000
0.000027 0.000486 0.000000
0.000028 0.000490 0.000000
0.000029 0.000494 0.000000
0.000030 0.000500 0.000000
0.000039 0.000508 0.000000
0.000048 0.000513 0.000000
0.000051 0.000523 0.000000
0.000053 0.000529 0.000000
0.000055 0.000534 0.000000
0.000053 0.000541 0.000000
0.000055 0.000545 0.000000
0.000054 0.000552 0.000000
0.000054 0.000558 0.000000
0.000054 0.000563 0.000000
0.000053 0.000569 0.000000
0.000053 0.000575 0.000000
0.000052 0.000581 0.000000
0.000053 0.000586 0.000000
0.000051 0.000592 0.000000
0.000052 0.000598 0.000000
0.000051 0.000602 0.000000
0.000051 0.000608 0.000000
0.000051 0.000614 0.000000
0.000051 0.000619 0.000000
0.000031 0.000445 0.000000
0.000032 0.000450 0.000000
0.000031 0.000455 0.000000
0.000032 0.000461 0.000000
0.000031 0.000466 0.000000
0.000032 0.000470 0.000000
0.000033 0.000475 0.000000
0.000032 0.000481 0.000000
0.000033 0.000485 0.000000
0.000033 0.000491 0.000000
0.000034 0.000497 0.000000
0.000036 0.000499 0.000000
0.000042 0.000506 0.000000
0.000054 0.000516 0.000000
0.000057 0.000523 0.000000
0.000058 0.000528 0.000000
0.000057 0.000536 0.000000
0.000059 0.000540 0.000000
0.000058 0.000546 0.000000
0.000058 0.000553 0.000000
0.000059 0.000557 0.000000
0.000058 0.000564 0.000000
0.000058 0.000569 0.000000
0.000057 0.000575 0.000000
0.000057 0.000581 0.000000
0.000057 0.000586 0.000000
0.000057 0.000592 0.000000
0.000056 0.000598 0.000000
0.000056 0.000603 0.000000
0.000055 0.000609 0.000000
0.000055 0.000614 0.000000
0.000055 0.000619 0.000000
0.000037 0.000445 0.000000
0.000036 0.000450 0.000000
0.000037 0.000455 0.000000
0.000036 0.000460 0.000000
0.000037 0.000465 0.000000
0.000038 0.000471 0.000000
0.000036 0.000476 0.000000
0.000038 0.000480 0.000000
0.000038 0.000485 0.000000
0.000037 0.000490 0.000000
0.000040 0.000493 0.000000
0.000041 0.000500 0.000000
0.000046 0.000505 0.000000
0.000049 0.000511 0.000000
0.000058 0.000521 0.000000
0.000061 0.000529 0.000000
0.000063 0.000534 0.000000
0.000063 0.000541 0.000000
0.000062 0.000548 0.000000
0.000063 0.000552 0.000000
0.000062 0.000559 0.000000
0.000063 0.000564 0.000000
0.000062 0.000570 0.000000
0.000062 0.000576 0.000000
0.000061 0.000582 0.000000
0.000061 0.000587 0.000000
0.000060 0.000593 0.000000
0.000061 0.000598 0.000000
0.000060 0.000604 0.000000
0.000060 0.000608 0.000000
0.000060 0.000614 0.000000
0.000060 0.000619 0.000000
0.000041 0.000445 0.000000
0.000042 0.000450 0.000000
0.000042 0.000456 0.000000
0.000042 0.000460 0.000000
0.000043 0.000465 0.000000
0.000041 0.000470 0.000000
0.000043 0.000475 0.000000
0.000043 0.000480 0.000000
0.000043 0.000486 0.000000
0.000044 0.000490 0.000000
0.000044 0.000496 0.000000
0.000047 0.000500 0.000000
0.000049 0.000506 0.000000
0.000055 0.000513 0.000000
0.000063 0.000521 0.000000
0.000065 0.000528 0.000000
0.000066 0.000535 0.000000
0.000066 0.000542 0.000000
0.000067 0.000547 0.000000
0.000066 0.000554 0.000000
0.000067 0.000559 0.000000
0.000067 0.000565 0.000000
0.000066 0.000571 0.000000
0.000066 0.000576 0.000000
0.000066 0.000582 0.000000
0.000066 0.000587 0.000000
0.000066 0.000593 0.000000
0.000065 0.000598 0.000000
0.000065 0.000604 0.000000
0.000065 0.000609 0.000000
0.000065 0.000614 0.000000
0.000065 0.000619 0.000000
0.000046 0.000445 0.000000
0.000047 0.000450 0.000000
0.000046 0.000455 0.000000
0.000047 0.000460 0.000000
0.000047 0.000465 0.000000
0.000047 0.000470 0.000000
0.000048 0.000476 0.000000
0.000046 0.000481 0.000000
0.000049 0.000484 0.000000
0.000048 0.000489 0.000000
0.000049 0.000495 0.000000
0.000052 0.000498 0.000000
0.000054 0.000506 0.000000
0.000057 0.000511 0.000000
0.000063 0.000519 0.000000
0.000068 0.000528 0.000000
0.000070 0.000535 0.000000
0.000071 0.000541 0.000000
0.000071 0.000548 0.000000
0.000071 0.000554 0.000000
0.000071 0.000559 0.000000
0.000071 0.000565 0.000000
0.000071 0.000571 0.000000
0.000071 0.000577 0.000000
0.000070 0.000582 0.000000
0.000070 0.000588 0.000000
0.000070 0.000593 0.000000
0.000070 0.000599 0.000000
0.000070 0.000604 0.000000
0.000070 0.000609 0.000000
0.000070 0.000614 0.000000
0.000070 0.000619 0.000000
0.000051 0.000445 0.000000
0.000052 0.000450 0.000000
0.000052 0.000456 0.000000
0.000052 0.000460 0.000000
0.000052 0.000465 0.000000
0.000053 0.000470 0.000000
0.000051 0.000475 0.000000
0.000053 0.000480 0.000000
0.000053 0.000486 0.000000
0.000052 0.000491 0.000000
0.000056 0.000494 0.000000
0.000054 0.000502 0.000000
0.000059 0.000504 0.000000
0.000061 0.000511 0.000000
0.000067 0.000520 0.000000
0.000071 0.000527 0.000000
0.000073 0.000534 0.000000
0.000074 0.000541 0.000000
0.000075 0.000548 0.000000
0.000075 0.000554 0.000000
0.000075 0.000560 0.000000
0.000075 0.000566 0.000000
0.000075 0.000571 0.000000
0.000075 0.000577 0.000000
0.000075 0.000582 0.000000
0.000075 0.000588 0.000000
0.000074 0.000593 0.000000
0.000075 0.000599 0.000000
0.000075 0.000604 0.000000
0.000075 0.000609 0.000000
0.000075 0.000614 0.000000
0.000075 0.000619 0.000000
0.000056 0.000445 0.000000
0.000057 0.000450 0.000000
0.000057 0.000455 0.000000
0.000057 0.000460 0.000000
0.000057 0.000465 0.000000
0.000057 0.000470 0.000000
0.000057 0.000475 0.000000
0.000058 0.000481 0.000000
0.000057 0.000485 0.000000
0.000059 0.000489 0.000000
0.000058 0.000497 0.000000
0.000061 0.000499 0.000000
0.000063 0.000507 0.000000
0.000065 0.000513 0.000000
0.000068 0.000516 0.000000
[...]
POINT_DATA 8142
SCALARS density float 1
LOOKUP_TABLE default
4420.360618
4421.653247
4420.356365
4421.650214
4423.053805
4422.484501
4429.048021
4427.222643
4442.130322
4422.439569
4436.583361
4394.632834
4635.569248
4455.093094
4644.130510
4486.798403
4573.734528
4543.708105
4545.963293
4532.809531
4542.457269
4533.628901
4541.817092
4531.750844
4545.968136
4523.713108
4550.622764
4516.787471
4552.837921
4548.776859
4651.372369
4379.571067
4428.076786
4419.410868
4413.883467
4425.335269
4426.076293
4416.133035
4427.647420
4421.559478
4397.582681
4416.037717
4454.483201
4391.898232
4444.701370
4433.796013
4463.549211
4448.570569
4442.124003
4457.643171
4445.943456
4444.512190
4441.911930
4443.407117
4444.492683
4436.898736
4454.766766
4430.261107
4443.699535
4402.297125
4400.523695
4373.940928
4364.180357
4664.184442
4416.315036
4417.115573
4445.916027
4407.641998
4436.810448
4410.388675
4447.556546
4378.953939
4482.732527
4351.827961
4487.321401
4382.299627
4455.462621
4492.781139
4484.006660
4479.353553
4488.804383
4477.775296
4482.635373
4474.054795
4489.876958
4478.614450
4478.602331
4479.072357
4480.098861
4475.560928
4471.738546
4484.413792
4457.181809
4549.602877
4516.962354
4439.029982
4428.286375
4429.704336
4420.929363
4432.003457
4446.630532
4410.027217
4460.841352
4410.557896
4474.192837
4390.046036
4540.903208
4381.137912
4489.075717
4445.834258
4492.985178
4469.772478
4469.239070
4468.365493
4460.577649
4461.866527
4455.469970
4469.435512
4451.698651
4465.388372
4454.792477
4463.376189
4446.115708
4485.797487
4422.776215
4434.800506
4455.780222
4456.824679
4429.826780
4432.239606
4434.032875
4432.764287
4428.531532
4437.656671
4434.336916
4436.680987
4466.305172
4381.613514
4481.748977
4377.357589
4402.358248
4472.365515
4485.602774
4473.824867
4477.090007
4477.736977
4481.533005
4468.380070
4477.976711
4466.688847
4476.590043
4462.478401
4459.439333
4462.240947
4449.860456
4456.597273
4451.456986
4473.889610
4447.139142
4457.470164
4424.177185
4440.829249
4439.880023
4419.644812
4436.832023
4428.890152
4440.720217
4421.316412
4435.123240
4451.473951
4462.214103
4387.442012
4483.376312
4483.691451
4462.132218
4468.890527
4474.980697
4462.671100
4465.696316
4466.064853
4464.181775
4461.625643
4456.709452
4469.076238
4457.241625
4468.602754
4459.048249
4464.047805
4454.007523
4453.762857
4447.755114
4453.344395
4429.426324
4446.580590
4402.632378
4440.381659
4447.735737
4418.287263
4434.348722
4429.227758
4436.917553
4406.009556
4451.933810
4506.934499
4471.566255
4432.783546
4478.528329
4469.444462
4469.113579
4466.889966
4472.988594
4462.205751
4470.054835
4462.043234
4460.143816
4457.814701
4453.671412
4455.229668
4452.703740
4452.916295
4453.436587
4450.612914
4454.003497
4453.263525
4436.638708
4435.761390
4433.373790
4455.342169
4399.632069
4451.826405
4445.041486
4421.723626
4433.215835
4440.611276
4403.525354
4431.321680
4466.486177
4439.292464
4477.902193
4465.241939
4468.498476
4473.921758
4464.110242
4466.994620
4458.359952
4464.325142
4460.552031
4463.333545
4462.547585
4460.593664
4457.805293
4456.236845
4457.183404
4452.915173
4454.979234
4452.318391
4428.187348
4435.566809
4442.108637
4417.011737
4449.034827
4459.318808
4392.432218
4450.323125
4415.620908
4468.945246
4429.425687
4449.878155
4453.022369
4490.334242
4458.650352
4472.508980
4468.781993
4468.010054
4464.834802
4463.721493
4458.580156
4462.647786
4455.899765
4457.934979
4453.073801
4454.901262
4453.124427
4453.459039
4448.136154
4453.546509
4451.596607
4452.149526
4434.939056
4442.357256
4417.143583
4440.286095
4451.983802
4409.880029
4458.534368
4462.631356
4389.636530
4437.931703
4432.383108
4431.319032
4451.318619
4472.473860
4460.621274
4473.710889
4464.962605
4469.432849
4467.374931
4462.960729
4465.117751
4460.291309
4463.122426
4458.949861
4460.007641
4458.611060
4456.959259
4453.860987
4454.396187
4455.171682
4452.648982
4451.450824
4441.193996
4436.125890
4429.115964
4450.602733
4401.695255
4448.857319
4455.897734
4394.221746
4471.115993
4439.573260
4409.699837
4456.347849
4435.500726
4446.467809
4454.900662
4464.850624
4459.725125
4464.212245
4461.752836
4463.904206
4460.590247
4458.018017
4457.124447
4455.302501
4455.827410
4451.937217
4451.931934
4452.161756
4452.469855
4450.201654
4452.043534
4451.045270
4440.859259
4432.770590
4438.093421
4426.571037
4439.635589
4451.875583
4397.041559
4462.312830
4466.189174
4390.977469
4468.681148
4440.923536
4457.506236
4454.248470
4477.100794
4464.488654
4477.449022
4464.802853
4467.227700
4462.999864
4463.311998
4459.974756
4459.744705
4458.742654
4458.073563
4455.591131
4455.655602
4455.099556
4454.798110
4452.127956
4453.030094
4450.427805
4433.051126
4435.564633
4439.154419
4436.523486
4445.218044
4421.156222
4441.259712
4458.445009
4397.561819
4460.350666
4465.772569
4405.845481
4467.739927
4424.556242
4452.481192
4457.033990
4458.681246
4454.019156
4464.986120
4459.948468
4459.309599
4458.424318
4457.618311
4455.284857
4453.523868
4452.869412
4454.047247
4450.488620
4452.438510
4451.336416
4451.288540
4450.108768
4442.408528
4439.442111
4436.254887
4436.876291
4434.523252
4442.388115
4455.478000
4409.744036
4457.623104
4465.385991
4398.398583
4467.664424
4436.305889
4457.076292
4450.680694
4468.571522
4464.450585
4468.337762
4463.887973
4462.722370
4461.494102
4459.346403
4459.938655
4456.420679
4456.839465
4454.652059
4455.468709
4453.730031
4453.075600
4453.124658
4451.764529
4449.607516
4433.826037
4435.500816
4438.168262
4434.970328
4441.013109
4431.735430
4427.753051
4456.846834
4450.514260
4392.314933
4467.684870
4457.006858
4440.970040
4468.502513
4428.577833
4448.358357
4460.485658
4456.222247
4459.118879
4456.720832
4461.244202
4460.853713
4456.275365
4454.618443
4453.870352
4454.470859
4451.393873
4452.638123
4452.220647
4450.222833
4451.676361
4449.188353
4444.249408
4444.028575
4434.181065
4440.831379
4439.968414
4439.391519
4450.460136
4421.707609
4425.071431
4469.658641
4448.882774
4398.362881
4465.607768
4432.143753
4457.346875
4450.614755
4464.534552
4459.305043
4456.725993
4464.804950
4457.553758
4456.684043
4458.552954
4456.551138
4456.746724
4453.508738
4455.412808
4452.296919
4454.421877
4451.269597
4452.283366
4448.935866
4432.159543
4436.363975
4435.235711
4437.821717
4431.096948
4438.896584
4438.629918
4441.698943
4458.377064
4414.718532
4409.191400
4475.171766
4450.242658
4450.724665
4466.791629
4420.408544
4430.073302
4475.329890
4436.567503
4454.923679
4468.166209
4457.268628
4459.472699
4452.539935
4457.384894
4450.203959
4455.779497
4449.797133
4453.837156
4449.816643
4452.223590
4448.506589
4445.570915
4442.787883
4430.319764
4442.617330
4436.540383
4439.375059
4428.934787
4434.799297
4443.383780
4439.939157
4463.952715
4416.147101
4415.856277
4459.025089
4451.373937
4470.503321
4456.979751
4460.454208
4471.283846
4449.948610
4453.103949
4452.746872
4458.013998
4453.630512
4459.430873
4452.602911
4456.497780
4451.076066
4455.702742
4450.160273
4453.310272
4448.265281
4428.928222
4433.922607
4438.510290
4434.321511
4425.166219
4444.663872
4431.669214
4444.084006
4416.346085
4436.648367
4453.861186
4433.863955
4469.627787
4427.716573
4431.847805
4461.072145
4426.985698
4464.117376
4428.847005
4463.873766
4464.710070
4456.183087
4460.177117
4456.371182
4452.467061
4452.684219
4455.340678
4451.256791
4454.756797
4448.827112
4453.305348
4448.388053
4446.551156
4435.521086
4437.982034
4432.900240
4443.370105
4426.226747
4423.619981
4448.813481
4429.368782
4447.930822
4409.763535
4466.149344
4448.276555
4439.438540
4456.592576
4435.479925
4445.915412
4462.011199
4465.004458
4440.962832
4449.631288
4455.845456
4451.677195
4453.369354
4460.793892
4452.672215
4457.510526
4451.484436
4456.205822
4450.386415
4453.917604
4448.260687
4424.496532
4439.521980
4432.616136
4443.670359
4435.914206
4432.913468
4449.165358
4417.025597
4428.210901
4444.402108
4427.970283
4447.186575
4414.235175
4477.835864
4425.044507
4458.249520
4446.318420
4446.149720
4433.246484
4468.086699
4461.026677
4440.241194
4465.744089
4448.114589
4455.051876
4451.212647
4457.577537
4450.824194
4456.434193
4448.650412
4454.501122
4448.395375
4444.280716
4432.524578
4439.681169
4429.030496
4424.510522
4445.197010
4433.670440
4435.164681
4457.850836
4415.749510
4450.311536
4421.097449
4451.325309
4445.443111
4433.693738
4462.224371
4432.642078
4449.039430
4457.185214
4420.241976
4468.627714
4441.250444
4456.703792
4452.723294
4459.770718
4452.503376
4459.253943
4450.411888
4457.805232
4449.659487
4455.810313
4448.432762
4425.603910
4435.629332
4434.006432
4437.430191
4446.199445
4422.779179
4425.420611
4440.899267
4428.353135
4431.104058
4443.376866
4429.399636
4460.479102
4417.185843
4464.978075
4434.671968
4452.437121
4445.725192
4446.599259
4445.709304
4457.314076
4447.956972
4465.361434
4435.171453
4459.635757
4447.461184
4456.832793
4451.738751
4456.526146
4450.328718
4455.282824
4449.105432
4441.051512
4433.831517
4439.533727
4436.002368
4429.919591
4434.453799
4445.730344
4423.167706
4430.151829
4443.731246
4434.454008
4438.206398
4426.917871
4445.151386
4454.178126
4431.524487
4461.903252
4435.719004
4451.061787
4439.790804
4454.196098
4435.394817
4451.827958
4457.810405
4452.129276
4455.577512
4456.442791
4451.438676
4456.459404
4451.809130
4454.975518
4450.500034
4386.421952
4421.013091
4419.757658
4420.805052
4422.110065
4422.261131
4423.035559
4423.203705
4423.639978
4423.792108
4424.000334
4424.089402
4424.426115
4424.504287
4426.582378
4394.666384
4416.955893
4416.323973
4418.062218
4419.881375
4420.044267
4421.402688
4421.471775
4422.436101
4422.493405
4423.192268
4423.336983
4423.612915
4422.684795
4428.551688
4402.509430
4417.789926
4415.964699
4418.718160
4420.147736
4420.577364
4422.146153
4422.003821
4423.600219
4423.216271
4424.861981
4424.193582
4426.107531
4425.452060
4429.028813
4407.356440
4419.906783
4417.465911
4420.114388
4420.777615
4421.768370
4422.861331
4423.183957
4424.545765
4424.500442
4426.168669
4426.019205
4428.197282
4427.881525
4433.642655
4412.440438
4421.173420
4419.630158
4421.130066
4422.102587
4422.679278
4423.918098
4424.218290
4425.614593
4425.801532
4427.422310
4427.606085
4429.979073
4429.846059
4434.906403
4415.543495
4422.567058
4421.355384
4422.244967
4423.452482
4423.593047
4425.108023
4425.144916
4426.767937
4426.805778
4428.791702
4428.868235
4431.578757
4431.704634
4435.380808
4418.651096
4423.962865
4422.967347
4423.608868
4424.589071
4424.724943
4426.117316
4426.170803
4427.776963
4427.908873
4429.717467
4430.181091
4432.307800
4433.048598
4436.420648
4421.178816
4425.144428
4424.245003
4424.897074
4425.589874
4425.901633
4426.919814
4427.279417
4428.494000
4428.992872
4430.465285
4431.126554
4433.306086
4433.953495
4436.331403
4423.440951
4426.297210
4425.605880
4426.099542
4426.604435
4426.965344
4427.772552
4428.238608
4429.270876
4429.790394
4431.215729
4431.837297
4433.647399
4434.579073
4436.228211
4425.383013
4427.275657
4426.627698
4427.178832
4427.498852
4427.915255
4428.565432
4429.032312
4429.949277
4430.528555
4431.639276
4432.443550
4434.028349
4434.678488
4436.015525
4427.128816
4428.183242
4427.770431
4428.182411
4428.375148
4428.818276
4429.269564
4429.852516
4430.475673
4431.174756
4432.062374
4432.793044
4433.900858
4434.684837
4435.906993
4428.595127
4428.957787
4428.615363
4429.024989
4429.130066
4429.598846
4429.897917
4430.492800
4431.000318
4431.665053
4432.286747
4433.079750
4433.822436
4434.811159
4435.395213
4429.915569
4429.685882
4429.534492
4429.856088
4429.868843
4430.299400
4430.558515
4431.061124
4431.497764
4432.076816
4432.627698
4433.255569
4433.577481
4434.808936
4435.761370
4433.941672
4433.086969
4438.999392
4430.380747
4420.002073
4439.562523
4446.919957
4449.727917
4440.859618
4437.877908
4446.260459
4440.056272
4446.007329
4451.342624
4452.868274
4451.439169
4431.021770
4430.291577
4430.212649
4430.500795
4430.498591
4430.923560
4431.062986
4431.585992
4431.916507
4432.436802
4432.878225
4433.378112
4433.883638
4434.721861
4435.316483
4428.950325
4417.526450
4437.941605
4423.885959
4442.984700
4432.722708
4435.972201
4435.252346
4441.894643
4446.634222
4446.081986
4445.400208
4448.536506
4452.769527
4452.679383
4453.256069
4432.019588
4430.847979
4430.969474
4431.167185
4431.109374
4431.503316
4431.605432
4432.068852
4432.319053
4432.826744
4433.156386
4433.662592
4433.871048
4434.617236
4435.628655
4435.192074
4443.921753
4438.716813
4419.197760
4422.630657
4430.318640
4433.918376
4443.980120
4444.600485
4447.432064
4442.653533
4446.563724
4448.316411
4455.566832
4452.643718
4454.946064
4432.844046
4431.311970
4431.505316
4431.655333
4431.634816
4431.983597
4432.056398
4432.477732
4432.701352
4433.151531
4433.406328
4433.897795
4434.104556
4434.907609
4435.121072
4438.950754
4442.339230
4418.656006
4450.024501
4432.911600
4446.778355
4434.635465
4438.241885
4442.089715
4445.583891
4445.481185
4451.210057
4449.815617
4455.823554
4452.214190
4456.510716
4433.586809
4431.743042
4432.112879
4432.178736
4432.154864
4432.445519
4432.533279
4432.874726
4433.100140
4433.467142
4433.752658
4434.156018
4434.236651
4435.072196
4435.289991
4441.020062
4436.351707
4424.003603
4437.291042
4415.568029
4420.907370
4439.508060
4439.967837
4445.595004
4446.545378
4450.769715
4452.040310
4450.107171
4457.738718
4454.001790
4458.148542
4434.217908
4432.096900
4432.524804
4432.572803
4432.559973
4432.845145
4432.915869
4433.220508
4433.446687
4433.771943
4434.059378
4434.372659
4434.706588
4435.244318
4435.476546
4428.052364
4416.451054
4449.773487
4429.236390
4445.268159
4440.241229
4440.343485
4435.496505
4442.719055
4447.772396
4453.114148
4450.278637
4458.113769
4459.918104
4459.057692
4459.893346
4434.792746
4432.430968
4433.002326
4432.997786
4432.981247
4433.241983
4433.292759
4433.598755
4433.781902
4434.094982
4434.370284
4434.699692
4434.999038
4435.477716
4435.588727
4435.341044
4444.903745
4450.696713
4413.599017
4446.606173
4428.328282
4441.102738
4446.035820
4446.918511
4449.257351
4450.478368
4455.706328
4461.587910
4459.691860
4463.314112
4460.826952
4435.263705
4432.698774
4433.319499
4433.302546
4433.300842
4433.561254
4433.616351
4433.900398
4434.067544
4434.410011
4434.644494
4435.003061
4435.218691
4435.945917
4435.481008
4436.974247
4443.506184
4415.951914
4447.803903
4436.916075
4425.671156
4441.399200
4430.478974
4436.359522
4449.979841
4451.693930
4459.842712
4458.008331
4461.649900
4463.583997
4460.054965
4435.699606
4432.951861
4433.689094
4433.642031
4433.642376
4433.882630
4433.935237
4434.209813
4434.382888
4434.686615
4434.912353
4435.353780
4435.534124
4436.316885
4436.129067
4443.197388
4445.928348
4415.534452
4452.202477
4417.702940
4448.571971
4437.884888
4443.902710
4452.292647
4448.345142
4452.002808
4455.937338
4456.573714
4461.766521
4460.130400
4458.010154
4436.051560
4433.155447
4433.915675
4433.877524
4433.878969
4434.138564
4434.188751
4434.468905
4434.619106
4434.942907
4435.222823
4435.520854
4435.874569
4436.591674
4436.076857
4432.152633
4416.941678
4451.289357
4441.498849
4425.077597
4449.328284
4429.851729
4448.072709
4447.136383
4445.683770
4458.625006
4454.041906
4458.987292
4456.900073
4456.823119
4455.938011
4436.374016
4433.345850
4434.189895
4434.148169
4434.137749
4434.401302
4434.433020
4434.725085
4434.874227
4435.185091
4435.438891
4435.837646
4436.193459
4436.935723
4436.562573
4439.286551
4445.997273
4449.277769
4413.147252
4451.466214
4431.569451
4445.181778
4446.198524
4441.413809
4450.016485
4452.729210
4450.175919
4456.385248
4454.586377
4456.520254
4454.374947
4436.624054
4433.485415
4434.352926
4434.307672
4434.314603
4434.586763
4434.617323
4434.933148
4435.041966
4435.407984
4435.630061
4436.088829
4436.312626
4437.242204
4436.402846
4440.154641
4444.812156
4421.202648
4447.703789
4451.869454
4423.321776
4450.730130
4438.973928
4443.982452
4451.846983
4447.851813
4454.738254
4453.082201
4453.375565
4454.269888
4452.962037
4436.842248
4433.612799
4434.558341
4434.494502
4434.517334
4434.770376
4434.804147
4435.112886
4435.222386
4435.596427
4435.775137
4436.252062
4436.490893
4437.642623
4436.736317
4443.885235
4447.228905
4419.096480
4448.900934
4417.720787
4442.363731
4441.236507
4437.280849
4447.746158
4447.831891
4444.925127
4452.600442
4448.490435
4452.219541
4452.288038
4451.620491
4436.995440
4433.708049
4434.652319
4434.598197
4434.631610
4434.885506
4434.930321
4435.226631
4435.364377
4435.678019
4435.922856
4436.352846
4436.570488
4437.517842
4436.673020
4434.892002
4422.144124
4453.811787
4441.677779
4428.405735
4450.657106
4430.937013
4443.656544
4442.055070
4444.026879
4451.019919
4449.772856
4449.802767
4451.682404
4451.341165
4450.588491
4437.122495
4433.794797
4434.786522
4434.729041
4434.757153
4435.015677
4435.043825
4435.342966
4435.456838
4435.785626
4436.010367
4436.343246
4436.735009
4437.598154
4436.924449
4438.491173
4435.669949
4447.210095
4414.500452
4450.515596
4429.478485
4445.461054
4448.486038
4444.919669
4445.262789
4449.635863
4444.984193
4450.500645
4449.374793
4449.997484
4449.361410
4437.202799
4433.844889
4434.835404
4434.777639
4434.811128
4435.085182
4435.083248
4435.422595
4435.484743
4435.842563
4435.989159
4436.440463
4436.606652
4437.423319
4436.411184
4442.810309
4450.528043
4429.896988
4447.082976
4451.927011
4424.504018
4446.394853
4432.272140
4441.454676
4444.016733
4448.129040
4447.718936
4449.962567
4447.744863
4449.455287
4447.920157
4437.250583
4433.891488
4434.924342
4434.853319
4434.889879
4435.148769
4435.155849
4435.466262
4435.513692
4435.879449
4435.967471
4436.403421
4436.463217
4437.520234
4436.655326
4442.433095
4446.144829
4417.766589
4447.622751
4420.533940
4443.502250
4440.173725
4439.676323
4445.658926
4443.679480
4444.105974
4446.828722
4446.962365
4448.108393
4449.463561
4446.363631
4437.255657
4433.916085
4434.935757
4434.855682
4434.912918
4435.158735
4435.173088
4435.454759
4435.533581
4435.819435
4435.945870
4436.294445
4436.359855
4437.148568
4436.063469
4439.489331
4430.049605
4449.101191
4447.533997
4422.398075
4446.430657
4428.340458
4440.934113
4437.373841
4447.131752
4447.494709
4448.620455
4447.089346
4448.281720
4448.125147
4444.687942
4437.260299
4433.929660
4434.987310
4434.899155
4434.946995
4435.190622
4435.190739
4435.467305
4435.516309
4435.779910
4435.920605
4436.142489
4436.301338
4436.890862
4436.133421
4432.031515
4422.533053
4445.324851
4419.961690
4447.296427
4434.137169
4440.491960
4446.318354
4438.605710
4443.944406
4442.341661
4447.411365
4448.015924
4448.669378
4448.302035
4443.669146
4437.227778
4433.927809
4434.982287
4434.877202
4434.933534
4435.177684
4435.165703
4435.446017
4435.470084
4435.760470
4435.790242
4436.078225
4436.094195
4436.665093
4435.735296
4438.465188
4445.098601
4446.371789
4420.455760
4446.857227
4425.694346
4443.530047
4433.754127
4447.345988
4447.933972
4446.629761
4447.874020
4446.966452
4447.684618
4447.337884
4442.125940
4437.167158
4433.936292
4434.992835
4434.892418
4434.954479
4435.169160
4435.170425
4435.423927
4435.440374
4435.696589
4435.720742
4436.012649
4435.848635
4436.493049
4435.336549
4436.672674
4445.216672
4423.128983
4449.042117
4436.011696
4438.788070
4446.649706
4435.120131
4444.256087
4439.567065
4445.996248
4447.331459
4447.965988
4448.360191
4447.586172
4441.665446
4437.091242
4433.931061
4434.943959
4434.878643
4434.896511
4435.162174
4435.116359
4435.393897
4435.393369
4435.658622
4435.667856
4435.872450
4435.864642
4436.205652
4435.484869
4439.263818
4443.402698
4420.353091
4443.760608
4424.240910
4445.891703
4433.706668
4448.580664
4446.166336
4445.215310
4448.222251
4446.434774
4446.540022
4447.559913
4446.923723
4441.477649
4437.041264
4433.916307
4434.933325
4434.890936
4434.868618
4435.177524
4435.053590
4435.423311
4435.311495
4435.642263
4435.569630
4435.882786
4435.730010
4436.072891
4435.034330
4435.705445
4430.789514
4448.270761
4443.043072
4434.446639
4447.188058
4433.169001
4445.361705
4437.431437
4447.784017
4445.666662
4448.796708
4447.966139
4449.774986
4447.175666
4441.753674