# vtk DataFile Version 2.0
mfree iwf
ASCII

DATASET UNSTRUCTURED_GRID
POINTS 11166 float
0.000000 0.000445 0.000000
0.000000 0.000450 0.000000
0.000000 0.000455 0.000000
-0.000000 0.000460 0.000000
-0.000000 0.000465 0.000000
0.000000 0.000470 0.000000
0.000000 0.000475 0.000000
-0.000000 0.000480 0.000000
0.000000 0.000485 0.000000
0.000000 0.000490 0.000000
-0.000000 0.000496 0.000000
0.000002 0.000500 0.000000
0.000930 0.000955 0.000000
0.000939 0.000955 0.000000
0.000985 0.000947 0.000000
0.000990 0.000945 0.000000
0.000990 0.000945 0.000000
0.000997 0.000943 0.000000
0.001004 0.000941 0.000000
0.000999 0.000943 0.000000
0.001014 0.000939 0.000000
0.001039 0.000930 0.000000
0.001045 0.000926 0.000000
0.001048 0.000924 0.000000
0.001052 0.000921 0.000000
0.001056 0.000918 0.000000
0.001060 0.000915 0.000000
0.001064 0.000911 0.000000
0.001067 0.000909 0.000000
0.001072 0.000905 0.000000
0.001077 0.000901 0.000000
0.001098 0.000891 0.000000
0.000005 0.000445 0.000000
0.000005 0.000450 0.000000
0.000005 0.000455 0.000000
0.000005 0.000460 0.000000
0.000005 0.000465 0.000000
0.000005 0.000470 0.000000
0.000005 0.000475 0.000000
0.000005 0.000480 0.000000
0.000005 0.000485 0.000000
0.000006 0.000490 0.000000
0.000003 0.000496 0.000000
0.000006 0.000499 0.000000
0.000980 0.000947 0.000000
0.000986 0.000939 0.000000
0.001020 0.000935 0.000000
0.001026 0.000933 0.000000
0.001031 0.000931 0.000000
0.001034 0.000929 0.000000
0.001037 0.000928 0.000000
0.001040 0.000924 0.000000
0.001043 0.000922 0.000000
0.001049 0.000918 0.000000
0.001054 0.000914 0.000000
0.001059 0.000910 0.000000
0.001063 0.000905 0.000000
0.001071 0.000900 0.000000
0.001074 0.000897 0.000000
0.001079 0.000894 0.000000
0.001089 0.000891 0.000000
0.001092 0.000890 0.000000
0.001087 0.000893 0.000000
0.001096 0.000889 0.000000
0.000010 0.000445 0.000000
0.000010 0.000450 0.000000
0.000010 0.000455 0.000000
0.000010 0.000460 0.000000
0.000010 0.000465 0.000000
0.000010 0.000469 0.000000
0.000010 0.000475 0.000000
0.000011 0.000479 0.000000
0.000009 0.000487 0.000000
0.000012 0.000489 0.000000
0.000009 0.000497 0.000000
0.000011 0.000498 0.000000
0.000980 0.000943 0.000000
0.000989 0.000937 0.000000
0.001005 0.000936 0.000000
0.001013 0.000935 0.000000
0.001017 0.000934 0.000000
0.001022 0.000933 0.000000
0.001014 0.000928 0.000000
0.001023 0.000926 0.000000
0.001027 0.000925 0.000000
0.001033 0.000922 0.000000
0.001043 0.000917 0.000000
0.001048 0.000915 0.000000
0.001048 0.000909 0.000000
0.001053 0.000906 0.000000
0.001058 0.000906 0.000000
0.001068 0.000901 0.000000
0.001081 0.000892 0.000000
0.001084 0.000891 0.000000
0.001089 0.000885 0.000000
0.001091 0.000880 0.000000
0.000015 0.000445 0.000000
0.000016 0.000450 0.000000
0.000014 0.000456 0.000000
0.000017 0.000460 0.000000
0.000014 0.000469 0.000000
0.000016 0.000465 0.000000
0.000014 0.000476 0.000000
0.000016 0.000480 0.000000
0.000014 0.000485 0.000000
0.000016 0.000489 0.000000
0.000014 0.000495 0.000000
0.000016 0.000497 0.000000
0.000025 0.000500 0.000000
0.000993 0.000938 0.000000
0.001007 0.000935 0.000000
0.001004 0.000931 0.000000
0.001018 0.000927 0.000000
0.001027 0.000930 0.000000
0.001031 0.000921 0.000000
0.001037 0.000918 0.000000
0.001032 0.000915 0.000000
0.001040 0.000915 0.000000
0.001050 0.000902 0.000000
0.001053 0.000910 0.000000
0.001059 0.000899 0.000000
0.001064 0.000900 0.000000
0.001064 0.000895 0.000000
0.001069 0.000894 0.000000
0.001074 0.000890 0.000000
0.001079 0.000888 0.000000
0.001082 0.000884 0.000000
0.001090 0.000878 0.000000
0.000020 0.000445 0.000000
0.000021 0.000450 0.000000
0.000019 0.000455 0.000000
0.000022 0.000459 0.000000
0.000019 0.000469 0.000000
0.000024 0.000467 0.000000
0.000018 0.000474 0.000000
0.000022 0.000478 0.000000
0.000019 0.000486 0.000000
0.000021 0.000490 0.000000
0.000021 0.000497 0.000000
0.000022 0.000499 0.000000
0.000039 0.000500 0.000000
0.000990 0.000926 0.000000
0.000996 0.000932 0.000000
0.001004 0.000926 0.000000
0.001010 0.000931 0.000000
0.001020 0.000921 0.000000
0.001021 0.000919 0.000000
0.001036 0.000913 0.000000
0.001025 0.000915 0.000000
0.001037 0.000907 0.000000
0.001040 0.000899 0.000000
0.001044 0.000897 0.000000
0.001050 0.000896 0.000000
0.001060 0.000893 0.000000
0.001066 0.000885 0.000000
0.001072 0.000886 0.000000
0.001075 0.000883 0.000000
0.001083 0.000879 0.000000
0.001086 0.000882 0.000000
0.001087 0.000874 0.000000
0.000024 0.000445 0.000000
0.000026 0.000450 0.000000
0.000024 0.000455 0.000000
0.000026 0.000461 0.000000
0.000021 0.000465 0.000000
0.000025 0.000472 0.000000
0.000023 0.000476 0.000000
0.000026 0.000481 0.000000
0.000023 0.000485 0.000000
0.000026 0.000488 0.000000
0.000026 0.000493 0.000000
0.000027 0.000500 0.000000
0.000959 0.000952 0.000000
0.000996 0.000935 0.000000
0.001000 0.000935 0.000000
0.001015 0.000924 0.000000
0.001009 0.000920 0.000000
0.001027 0.000920 0.000000
0.001028 0.000911 0.000000
0.001018 0.000915 0.000000
0.001026 0.000907 0.000000
0.001043 0.000910 0.000000
0.001043 0.000907 0.000000
0.001044 0.000904 0.000000
0.001055 0.000901 0.000000
0.001056 0.000896 0.000000
0.001068 0.000890 0.000000
0.001064 0.000890 0.000000
0.001078 0.000881 0.000000
0.001071 0.000880 0.000000
0.001080 0.000876 0.000000
0.001084 0.000870 0.000000
0.000030 0.000445 0.000000
0.000031 0.000450 0.000000
0.000029 0.000455 0.000000
0.000031 0.000460 0.000000
0.000031 0.000464 0.000000
0.000028 0.000469 0.000000
0.000032 0.000472 0.000000
0.000030 0.000477 0.000000
0.000030 0.000486 0.000000
0.000031 0.000492 0.000000
0.000033 0.000497 0.000000
0.000030 0.000499 0.000000
0.000048 0.000500 0.000000
0.000985 0.000933 0.000000
0.001000 0.000923 0.000000
0.001009 0.000925 0.000000
0.001005 0.000921 0.000000
0.001013 0.000919 0.000000
0.001020 0.000908 0.000000
0.001034 0.000902 0.000000
0.001032 0.000909 0.000000
0.001037 0.000902 0.000000
0.001047 0.000900 0.000000
0.001051 0.000888 0.000000
0.001053 0.000892 0.000000
0.001056 0.000888 0.000000
0.001061 0.000881 0.000000
0.001061 0.000886 0.000000
0.001069 0.000876 0.000000
0.001074 0.000876 0.000000
0.001079 0.000872 0.000000
0.001082 0.000867 0.000000
0.000035 0.000445 0.000000
0.000035 0.000450 0.000000
0.000034 0.000456 0.000000
0.000039 0.000454 0.000000
0.000034 0.000467 0.000000
0.000037 0.000472 0.000000
0.000032 0.000479 0.000000
0.000042 0.000479 0.000000
0.000035 0.000484 0.000000
0.000034 0.000488 0.000000
0.000037 0.000491 0.000000
0.000036 0.000498 0.000000
0.000917 0.000953 0.000000
0.000955 0.000953 0.000000
0.000995 0.000926 0.000000
0.001001 0.000918 0.000000
0.001014 0.000912 0.000000
0.001007 0.000909 0.000000
0.001022 0.000912 0.000000
0.001022 0.000904 0.000000
0.001029 0.000904 0.000000
0.001026 0.000896 0.000000
0.001033 0.000889 0.000000
0.001043 0.000888 0.000000
0.001047 0.000890 0.000000
0.001052 0.000882 0.000000
0.001066 0.000879 0.000000
0.001059 0.000868 0.000000
0.001070 0.000871 0.000000
0.001073 0.000871 0.000000
0.001076 0.000868 0.000000
0.001078 0.000862 0.000000
0.000040 0.000445 0.000000
0.000041 0.000450 0.000000
0.000036 0.000461 0.000000
0.000040 0.000458 0.000000
0.000042 0.000463 0.000000
0.000040 0.000468 0.000000
0.000041 0.000473 0.000000
0.000037 0.000477 0.000000
0.000041 0.000488 0.000000
0.000042 0.000491 0.000000
0.000041 0.000497 0.000000
0.000044 0.000498 0.000000
0.000777 0.000883 0.000000
0.000981 0.000939 0.000000
0.000986 0.000929 0.000000
0.000996 0.000913 0.000000
0.001011 0.000915 0.000000
0.001017 0.000907 0.000000
0.001011 0.000908 0.000000
0.001027 0.000900 0.000000
0.001034 0.000896 0.000000
0.001038 0.000893 0.000000
0.001031 0.000894 0.000000
0.001038 0.000884 0.000000
0.001048 0.000883 0.000000
0.001053 0.000877 0.000000
0.001056 0.000883 0.000000
0.001058 0.000877 0.000000
0.001063 0.000875 0.000000
0.001067 0.000867 0.000000
0.001073 0.000864 0.000000
0.001075 0.000859 0.000000
0.000044 0.000445 0.000000
0.000046 0.000450 0.000000
0.000044 0.000455 0.000000
0.000046 0.000460 0.000000
0.000044 0.000467 0.000000
0.000046 0.000473 0.000000
0.000046 0.000479 0.000000
0.000039 0.000483 0.000000
0.000051 0.000486 0.000000
0.000045 0.000483 0.000000
0.000048 0.000493 0.000000
0.000050 0.000498 0.000000
0.000782 0.000888 0.000000
0.000976 0.000947 0.000000
0.000999 0.000928 0.000000
0.001005 0.000914 0.000000
0.001002 0.000912 0.000000
0.001015 0.000902 0.000000
0.001019 0.000897 0.000000
0.001021 0.000899 0.000000
0.001027 0.000890 0.000000
0.001037 0.000889 0.000000
0.001043 0.000892 0.000000
0.001047 0.000877 0.000000
0.001041 0.000879 0.000000
0.001050 0.000875 0.000000
0.001057 0.000873 0.000000
0.001063 0.000870 0.000000
0.001061 0.000865 0.000000
0.001067 0.000863 0.000000
0.001070 0.000860 0.000000
0.001072 0.000855 0.000000
0.000049 0.000445 0.000000
0.000052 0.000450 0.000000
0.000049 0.000454 0.000000
0.000054 0.000455 0.000000
0.000048 0.000464 0.000000
0.000050 0.000472 0.000000
0.000051 0.000467 0.000000
0.000050 0.000477 0.000000
0.000047 0.000488 0.000000
0.000052 0.000491 0.000000
0.000057 0.000492 0.000000
0.000053 0.000498 0.000000
0.000861 0.000939 0.000000
0.000968 0.000944 0.000000
0.000980 0.000935 0.000000
0.000996 0.000917 0.000000
0.001003 0.000906 0.000000
0.001011 0.000904 0.000000
0.001006 0.000899 0.000000
0.001012 0.000899 0.000000
0.001022 0.000889 0.000000
0.001022 0.000893 0.000000
0.001025 0.000885 0.000000
0.001035 0.000881 0.000000
0.001041 0.000874 0.000000
0.001044 0.000882 0.000000
0.001049 0.000868 0.000000
0.001053 0.000864 0.000000
0.001054 0.000869 0.000000
0.001063 0.000859 0.000000
0.001067 0.000856 0.000000
0.001069 0.000851 0.000000
0.000054 0.000445 0.000000
0.000057 0.000450 0.000000
0.000051 0.000459 0.000000
0.000053 0.000462 0.000000
0.000059 0.000467 0.000000
0.000053 0.000473 0.000000
0.000058 0.000476 0.000000
0.000057 0.000481 0.000000
0.000052 0.000482 0.000000
0.000057 0.000486 0.000000
0.000056 0.000497 0.000000
0.000059 0.000496 0.000000
0.000884 0.000945 0.000000
0.000975 0.000949 0.000000
[...]
POINT_DATA 11166
SCALARS density float 1
LOOKUP_TABLE default
4428.510693
4432.727140
4427.613689
4429.838030
4433.926355
4426.064990
4431.517434
4431.610722
4428.673061
4413.935352
4430.287895
4406.315046
4425.091708
4421.120325
4417.289097
4439.111922
4440.420013
4438.489266
4448.487267
4447.575910
4427.254837
4444.112799
4404.546121
4438.352868
4433.179462
4418.966551
4448.233945
4431.682031
4416.601634
4447.702499
4422.712858
4401.664024
4429.124884
4427.264816
4425.915211
4424.062955
4432.861898
4424.589708
4426.791164
4426.247769
4425.720363
4434.124848
4452.439403
4408.688934
4412.921323
4420.699267
4417.205783
4412.920585
4422.612195
4416.972728
4430.063468
4424.866989
4456.307629
4429.838872
4401.499093
4384.241241
4447.394287
4402.406068
4433.428153
4462.085109
4424.367117
4431.611663
4406.196601
4401.199496
4423.560247
4431.647865
4439.573247
4426.937527
4430.397019
4419.903976
4453.424309
4399.642878
4451.519620
4409.875122
4441.793728
4398.603572
4454.630507
4457.827294
4433.116025
4404.885880
4425.621718
4412.446378
4453.226527
4424.270867
4403.522299
4442.695547
4421.357291
4417.061092
4392.454090
4442.817752
4434.105603
4402.751950
4424.445488
4423.105628
4453.216490
4418.306257
4423.720377
4436.163086
4433.790173
4419.086025
4418.888634
4437.489159
4449.476028
4390.286241
4469.376325
4376.568191
4496.324986
4411.523693
4434.211143
4379.632001
4421.558475
4442.156588
4473.788352
4461.704950
4446.265286
4400.807802
4402.665011
4420.741142
4412.015414
4481.587763
4419.838036
4449.852085
4437.877816
4461.849908
4434.000153
4363.348506
4503.542906
4445.742460
4436.501731
4434.627525
4443.928617
4439.550885
4418.656510
4458.932521
4431.919275
4444.674899
4465.330000
4374.451544
4467.233040
4433.349898
4418.763624
4437.223440
4474.597190
4422.509501
4470.281769
4432.799549
4462.018791
4446.574681
4458.427636
4373.371311
4422.226563
4410.338780
4404.924592
4408.531456
4403.513596
4459.360516
4452.337419
4369.997375
4393.627317
4420.231194
4432.573767
4432.559925
4433.211329
4404.798843
4433.708543
4413.112252
4466.651535
4363.065488
4435.583741
4472.021205
4420.972063
4424.331706
4433.210808
4426.805393
4385.890873
4378.601617
4457.565354
4402.901143
4424.841107
4381.152077
4458.359769
4471.756532
4444.152220
4432.586575
4446.485460
4449.533751
4399.391845
4427.257390
4423.832583
4427.030596
4506.071904
4410.156850
4426.330157
4428.968462
4422.637723
4445.785362
4442.582221
4425.344596
4399.606536
4450.099352
4438.533739
4403.727463
4455.224628
4419.761573
4423.511543
4440.274836
4463.743346
4410.158405
4411.400979
4476.705110
4435.368625
4436.385085
4450.329827
4462.873627
4463.472262
4445.326724
4451.466865
4409.444209
4411.168649
4462.720598
4436.924511
4379.976235
4408.702972
4441.358561
4428.988320
4420.304895
4432.821335
4434.252864
4433.354040
4431.448870
4451.451849
4434.716191
4419.391828
4433.923673
4420.117195
4445.547429
4420.353761
4424.365812
4388.489814
4403.732790
4452.599465
4440.207993
4404.834370
4419.997805
4434.657622
4467.591755
4404.490583
4427.008845
4397.631694
4438.376348
4450.011728
4450.538504
4447.472497
4458.870066
4411.934746
4415.814282
4433.455718
4439.011070
4404.960769
4448.625640
4437.815807
4430.396693
4443.236031
4412.390223
4443.634816
4435.947511
4429.191445
4420.439413
4424.002239
4459.659583
4407.435369
4407.235511
4407.903684
4451.480164
4434.137045
4404.415020
4423.516415
4436.400528
4418.274621
4414.397537
4431.419863
4420.683795
4404.953772
4443.710436
4399.234111
4395.337298
4422.390330
4433.729330
4434.753691
4416.079427
4413.192020
4410.841916
4401.223172
4423.479400
4440.526905
4421.520984
4451.091677
4427.436141
4472.300270
4433.426845
4434.592079
4438.722450
4395.613362
4435.329127
4438.918429
4382.496191
4434.968150
4453.457362
4456.655892
4443.746500
4445.986303
4421.512316
4429.552360
4438.179852
4447.818807
4446.252795
4429.415079
4437.368619
4438.667542
4424.928250
4424.689176
4428.754486
4446.184681
4415.492563
4445.892991
4464.760425
4410.562122
4372.781533
4389.236805
4415.876897
4539.445935
4408.163354
4435.510778
4429.984728
4391.292269
4453.849568
4426.297570
4408.701008
4452.625636
4452.075849
4422.867592
4403.377405
4437.866550
4433.199715
4406.104238
4462.140239
4460.281340
4447.813106
4381.404272
4417.400824
4421.973861
4430.154934
4435.999880
4422.701600
4447.344106
4405.661070
4443.957308
4457.776913
4415.906678
4462.650036
4466.061250
4361.338456
4408.079406
4398.554132
4434.253235
4433.390183
4421.644801
4423.958511
4446.836719
4437.680834
4417.604954
4447.589713
4422.294721
4409.170628
4451.791907
4440.765439
4433.899162
4438.543757
4445.646141
4420.855845
4423.947658
4445.408217
4428.308377
4424.711315
4425.852307
4438.996710
4411.976427
4387.654800
4451.439298
4420.589472
4413.804461
4424.174286
4447.617857
4423.097700
4441.343127
4436.105830
4414.813950
4434.456335
4421.919081
4379.867742
4398.184593
4408.339725
4434.995685
4446.243229
4411.736960
4455.439193
4416.288286
4429.465896
4405.379800
4425.485666
4386.962098
4431.224956
4417.446859
4429.988707
4437.019249
4431.326674
4439.935333
4411.049766
4444.364523
4408.183504
4440.058263
4452.257231
4432.859849
4377.011181
4428.559267
4402.131115
4446.295121
4433.479880
4413.594032
4434.607808
4404.661625
4399.163222
4438.645493
4400.002954
4441.668371
4398.226038
4438.206854
4414.399251
4466.663268
4446.198034
4411.238134
4461.962377
4440.061089
4429.414513
4445.951233
4442.939423
4415.538797
4433.249506
4407.990021
4437.418962
4417.740918
4445.451409
4454.310385
4411.772729
4429.845903
4458.516015
4441.097479
4384.571590
4450.926208
4451.255415
4425.200460
4436.595954
4438.911173
4462.458447
4458.804221
4449.175818
4446.845197
4455.534076
4398.092038
4421.016659
4398.982443
4441.896583
4462.367717
4423.979524
4418.721679
4393.290343
4433.733809
4396.963519
4439.849345
4428.177819
4438.536414
4404.367679
4447.160999
4427.133797
4428.410236
4418.477892
4419.242398
4466.195172
4419.998769
4375.345350
4404.345047
4448.300684
4430.231840
4419.106060
4429.736574
4439.612460
4445.207235
4423.553245
4399.336736
4433.903757
4383.689919
4412.945890
4458.364523
4433.876020
4407.694955
4407.449768
4446.802228
4410.960915
4450.343975
4421.209392
4438.591297
4419.667720
4420.098043
4424.549706
4455.298218
4414.099918
4378.154085
4425.379912
4375.515387
4414.537837
4453.517854
4449.957479
4437.180747
4428.100646
4431.363151
4431.917393
4436.346731
4435.005616
4477.135936
4435.283324
4419.158425
4442.867501
4423.091870
4452.889559
4436.800648
4425.077958
4432.479302
4432.431590
4428.766682
4446.606031
4419.817805
4440.815363
4423.785226
4441.120073
4446.187931
4446.067723
4446.285628
4445.273655
4464.627168
4465.715359
4443.494608
4439.544369
4439.865080
4416.398722
4437.614558
4443.188564
4430.341410
4435.216797
4439.821373
4438.595948
4464.246620
4415.847324
4481.495526
4481.357710
4426.108000
4439.640361
4436.732798
4389.570154
4445.922381
4423.108044
4434.944853
4419.675080
4466.061556
4423.329114
4434.317440
4421.779522
4421.511736
4448.171317
4402.585110
4436.532782
4415.137194
4438.100003
4418.446392
4441.232735
4445.272811
4417.593775
4410.164928
4435.452311
4418.995143
4419.750544
4422.362766
4439.353011
4424.258321
4437.323193
4428.029633
4426.626984
4459.602033
4436.766454
4410.352356
4411.936970
4431.707172
4410.927442
4415.173473
4444.545414
4398.279576
4399.524503
4435.035942
4433.420553
4442.815993
4424.740189
4442.369616
4438.846296
4385.779746
4429.639089
4453.156519
4419.217562
4446.896920
4398.364551
4429.339141
4429.509198
4426.784255
4437.992541
4438.984230
4450.460388
4440.091037
4442.216158
4428.155183
4441.038099
4482.679028
4423.868820
4441.763782
4438.668805
4366.350381
4447.238322
4438.614033
4451.085052
4446.674258
4459.442914
4423.553557
4438.695946
4414.161810
4442.939160
4438.425500
4403.395592
4418.419834
4421.843420
4433.768558
4419.363881
4460.291389
4478.365261
4391.038157
4511.101490
4427.719594
4429.257356
4432.030324
4469.891432
4438.907805
4431.516986
4358.381526
4438.713800
4412.576302
4449.301849
4468.127515
4461.506144
4457.497907
4425.996274
4402.221601
4448.412671
4415.318558
4418.515516
4406.060171
4430.789031
4422.789020
4414.805562
4431.579967
4415.833621
4430.132344
4440.515742
4417.547988
4431.230554
4453.484463
4377.936018
4435.909766
4434.417026
4420.103665
4422.235563
4433.320510
4432.040358
4453.167319
4400.483907
4442.877272
4430.464552
4402.861479
4353.319040
4458.434552
4394.167256
4416.130969
4436.859760
4453.472961
4421.673689
4441.717460
4440.652698
4440.314824
4436.467891
4438.558711
4421.364125
4451.202978
4426.472938
4404.326288
4451.938847
4418.103297
4410.513533
4429.306694
4386.216590
4372.598482
4470.319005
4426.018650
4437.982830
4418.550308
4427.097175
4440.748340
4439.048637
4436.460055
4455.256178
4447.541887
4385.045040
4367.206225
4451.303957
4391.803266
4401.122839
4424.280719
4429.379343
4445.794964
4408.182796
4411.888918
4415.832419
4431.274325
4419.091779
4461.389270
4428.578952
4445.215401
4436.250980
4405.927707
4436.196586
4464.273317
4458.297005
4437.456542
4430.929691
4416.855309
4440.686174
4430.726105
4409.875346
4360.200520
4430.545408
4405.633317
4430.697192
4386.208137
4439.104714
4438.679917
4459.190449
4454.240365
4463.046601
4414.061504
4417.005222
4445.886522
4404.011251
4460.708628
4420.682718
4426.391892
4430.090914
4430.036135
4430.142780
4429.978277
4429.584501
4429.390894
4429.102535
4429.495335
4430.125877
4431.105278
4431.545064
4431.498488
4431.074353
4430.449055
4427.500472
4429.510779
4428.745716
4429.194258
4430.033321
4431.143745
4432.380105
4433.336580
4433.443076
4432.044873
4430.510326
4429.417212
4429.661124
4430.754451
4430.912476
4428.367993
4429.632918
4430.288563
4430.430923
4429.974113
4428.798609
4427.896701
4426.676685
4426.994592
4428.540499
4430.804726
4431.947670
4431.379984
4430.531603
4428.798899
4428.741423
4429.254361
4428.568560
4428.622093
4429.594574
4430.831516
4432.234385
4433.684281
4433.542360
4432.019770
4429.422065
4428.075220
4427.753549
4428.699832
4429.523433
4429.155970
4429.619412
4430.343817
4430.539394
4429.749168
4428.703918
4427.384502
4425.940599
4426.197324
4427.478559
4430.300358
4430.934244
4431.403603
4428.438470
4429.002347
4429.049850
4429.279757
4428.491091
4428.339257
4429.537570
4430.350970
4432.196444
4433.116563
4433.529628
4431.230050
4429.156834
4426.958428
4427.511831
4427.533932
4429.060864
4429.330368
4429.401479
4430.638084
4430.255140
4429.756046
4428.465058
4427.110460
4425.673714
4425.659940
4427.214417
4429.506125
4430.873727
4429.637560
4427.646985
4426.264673
4429.002068
4429.060812
4428.612253
4428.049361
4429.480558
4430.062563
4432.030956
4432.791670
4433.384854
4430.853392
4429.052790
4426.446785
4427.572478
4426.710665
4428.497772
4428.821785
4429.566005
4430.358797
4430.059703
4429.940448
4427.908437
4427.452353
4424.933715
4426.043777
4426.442284
4429.881358
4430.601574
4431.368593
4428.489438
4430.369932
4428.910454
4429.189573
4428.205717
4428.310570
4428.897927
4430.383865
4431.222217
4433.219417
4432.626727
4431.198187
4428.768428
4426.519126
4428.011114
4428.417963
4427.507364
4428.924960
4429.757146
4429.990741
4430.547910
4429.044641
4428.584414
4426.406941
4425.623583
4425.196578
4427.087347
4428.775417
4431.785607
4429.007033
4429.426831
4428.534526
4428.689304
4429.182886
4427.974500
4428.027485
4428.843941
4429.966281
4431.153426
4432.992011
4432.645299
4431.167819
4428.571072
4426.846875
4427.555473
4428.248692
4429.038905
4428.750820
4429.382257
4430.235360
4430.124619
4429.232300
4428.053083
4426.870111
4425.081051
4425.737787
4426.378658
4429.552052
4430.952872
4432.177755
4429.718270
4431.538931
4431.159367
4441.623547
4438.351666
4439.703813
4423.164989
4453.174746
4430.805875
4399.168631
4408.639723
4444.633704
4458.539311
4409.161724
4408.595824
4440.202242
4425.732382
4428.242047
4428.541641
4428.816923
4428.150145
4427.281117
4429.157258
4429.338798
4431.304444
4432.501056
4432.849968
4430.450909
4429.072316
4426.420956
4428.225568
4429.516082
4432.576936
4429.533870
4436.906798
4422.553431
4401.688527
4417.434358
4439.318042
4432.308091
4406.982880
4394.545734
4413.267711
4426.545989
4438.902576
4436.250978
4388.075169
4429.304641
4407.828966
4428.432932
4429.227542
4430.207193
4429.913391
4429.224112
4427.683698
4427.111474
4424.770102
4425.817572
4426.007688
4428.948149
4430.672920
4431.076644
4428.900940
4429.957267
4449.052056
4435.752289
4417.609397
4419.568061
4416.511093
4450.812112
4422.274408
4427.325382
4394.750993
4432.107946
4439.933953
4421.891731
4436.619168
4419.032619
4438.869753
4429.423465
4428.395024
4428.888921
4427.665801
4427.438499
4428.415866
4429.732449
4430.318246
4432.967305
4431.677312
4430.847155
4427.873546
4425.771725
4426.684708
4426.688109
4430.364076
4435.422564
4400.749044
4411.041142
4383.357387
4396.442170
4450.416968
4427.902507
4444.704776
4444.165387
4449.382837
4433.616753
4432.295472
4377.865598
4396.764028
4447.309097
4453.156122
4428.175726
4429.365004
4429.886353
4429.933859
4429.051134
4427.649909
4426.922311
4424.775027
4425.587761
4425.470836
4428.252976
4430.134285
4429.016423
4426.696013
4424.493128
4447.029856
4441.632669
4455.562703
4451.852129
4437.994854
4435.320679
4440.220421
4430.281403
4401.191583
4432.651974
4391.204123
4433.543801
4421.357590
4418.577925
4428.027778
4421.468668
4427.967446
4428.841467
4427.388503
4427.386327
4428.099577
4429.728618
4429.984337
4432.773417
4431.403698
4430.634335
4427.295398
4425.129394
4426.050858
4426.023275
4424.577174
4427.235034
4396.645167
4418.683647
4396.704015
4478.484418
4391.241330
4431.904481
4440.307764
4435.261771
4399.648010
4397.919916
4424.900411
4422.799937
4415.380168
4442.587057
4419.288090
4428.296069
4429.365561
4429.794908
4430.116212
4428.756437
4427.931257
4426.440393
4425.218873
4425.184335
4425.451437
4427.557133
4430.250540
4427.409750
4426.958549
4426.291534
4447.512303
4422.097574
4461.610218
4393.156221
4357.643103
4437.914983
4431.853969
4432.191486
4458.590474
4436.254532
4418.108581
4466.357779
4445.789871
4423.206434
4479.587015
4408.150766
4427.856364
4428.664789
4427.357890
4426.955279
4428.096944
4429.236588
4429.954650
4432.439392
4431.630306
4430.302345
4427.526854
4424.748569
4426.492898
4426.448277
4424.085615
4445.455225
4427.784940
4422.233460
4463.612309
4385.730226
4480.923025
4416.929553
4425.941560
4423.632981
4395.842559
4450.410095
4392.773645
4465.147866
4382.053686
4427.734332
4428.679645
4428.093911
4429.032030
4430.021439
4429.857038
4428.917479
4427.459920
4426.905250
4424.925628
4425.894150
4424.885865
4428.057104
4430.429914
4429.036232
4427.634016
4429.575180
4413.568540
4413.174052
4398.947862
4401.902227
4442.365799
4436.124488
4421.852965
4423.512265
4359.508255
4432.615026
4404.410772
4402.527627
4460.827288
4452.666319
4417.186080
4392.145474
4427.865036
4428.371389
4427.542250
4426.280116
4428.253690
4428.680463
4429.965031
4432.223824
4431.533309
4430.438118
4427.358453
4424.825133
4427.664095
4426.776419
4428.786867
4442.347476
4408.095296
4422.023117
4454.557598
4377.777200
4422.431298
4431.678469
4441.776481
4432.597041
4426.912404
4442.475898
4447.434456
4397.929929
4444.614773
4375.743594
4445.040184
4427.875838
4428.941310
4429.918399
4429.930066
4428.781696
4427.366965
4427.058250
4424.978990
4426.143373
4424.380866
4427.988433
4430.278068
4428.662674
4428.363222
4427.034476
4430.240600
4388.329649
4436.798769
4456.152657
4464.028886
4430.763719
4458.048174
4448.981129
4405.181801
4454.575521
4436.129258
4425.803693
4461.504961
4380.489829
4435.311201
4398.788289
4427.764602
4428.521381
4427.127377
4426.438867
4427.507668
4429.001005
4429.322582
4432.220154
4431.324531
4430.521217
4426.733322
4424.776772
4425.769353
4426.654257
4425.015284
4426.625663
4438.608340
4419.308633
4383.588741
4425.553927
4421.178140
4433.032674
4442.798726
4452.779968
4440.937587
4465.743893
4387.201890
4427.227119
4421.112489
4432.455829
4444.141055
4427.638909
4429.249837
4429.530039
4430.062710
4428.887887
4427.598257
4426.711602
4425.965414
4425.312709
4424.915120
4426.882378
4430.178108
4427.248375
4426.507135
4425.451923
4420.633790
4433.395726
4426.962162
4412.899480
4438.459604
4434.764670
4442.385330
4433.503769
4432.434998
4414.205029
4416.314236
4450.710704
4406.386612
4414.183688
4507.494112
4444.718139
4427.471476
4429.048668
4426.296956
4427.247399
4426.420522
4429.979164
4428.257309
4432.807472
4430.892480
4430.533474
4426.317966
4424.671576
4424.918498
4425.770260
4425.197390
4424.116919
4422.778139
4396.504846
4445.660084
4442.510620
4416.273419
4426.356298
4425.191001
4419.291827
4451.368089
4426.270232
4451.379210
4382.267334
4410.964346
4404.500690
4452.856443
4427.394438
4429.780109
4428.948895
4430.977532
4428.176070
4428.406977
4425.646895
4426.813173
4424.726039
4425.350363
4426.331930
4430.092857
4427.097607
4427.489788
4423.724344
4422.808032
4433.832596
4425.784367
4430.463808
4422.216192
4437.037647
4416.973536
4440.532878
4436.501704
4432.843232
4411.657195
4433.837471
4418.658033
4441.482297
4408.394116
4398.317529
4427.572416
4428.738932
4426.716565
4426.374206
4427.115376
4428.739113
4428.761293
4432.863513
4430.829960
4431.018230
4426.173026
4425.455367
4424.208500
4426.098512
4425.040147
4429.914973
4443.196942
4397.498888
4400.526634
4424.394123
4441.402909
4423.495393
4424.958533
4413.495300
4462.986942
4444.740978
4429.423559
4460.749977
4403.131418
4431.650434
4429.911966
4427.819116
4429.111568
4429.873151
4430.591803
4428.312961
4428.403978
4426.442236
4426.162657
4426.666197
4424.594275
4426.823745
4429.762578
4429.016230
4426.768494
4425.228280
4411.886780
4404.884633
4425.381281
4439.442557
4402.978163
4432.598022
4441.609893
4419.103673
4462.364148
4417.188551
4452.124643
4408.853878
4424.618975
4423.882332
4425.573121
4417.799541
4427.916768
4428.553091
4426.940650
4425.780210
4427.241096
4427.653776
4429.784481
4432.008431
4431.203226
4430.554443
4427.061419
4423.656999
4425.202102
4425.235004
4426.016734
4443.556005
4454.764775
4445.961141
4457.304021
4383.275344
4412.688226
4432.531987
4413.455634
4472.151960
4457.558813
4442.864666
4391.021540
4442.151712
4437.475619
4420.481183
4430.832241
4427.851738
4428.435024
4430.479980
4429.349693
4429.520150
4427.077249
4427.804127
4425.029630
4427.598939
4423.503578
4426.547432
4430.426161
4427.630767
4425.718841
4428.223846
4435.783493
4421.202225
4414.825180
4459.231414
4385.278030
4435.868639
4426.088523
4428.642793
4427.747673
4461.598690
4461.662924
4400.642028
4423.982775
4431.590755
4374.406242
4432.739926
4427.692367
4428.819665
4426.761456
4426.219451
4426.143124
4428.811599
4428.975834
4432.591959
4431.595859
4431.501676
4426.811268
4424.003037
4423.938998
4424.136190
4424.179874
4430.343347
4420.358612
4419.723429
4377.762578
4429.308127
4443.857294
4444.779427
4420.847685
4391.481779
4442.652978
4401.349487
4416.329028
4397.955007
4438.426255
4411.413711
4444.554231
4427.479140
4429.660195
4428.653045
4431.454217
4428.755734
4428.852388
4426.993332
4427.741558
4426.008179
4424.452604
4426.790029
4429.486062
4427.215207
4426.814056
4423.709313
4429.893617
4428.561060
4424.045642
4426.053725
4455.158193
4417.174527
4414.641050
4475.311609
4394.271726
4460.035065
4409.885005
4391.259224
4481.377024
4420.659925
4564.966223
4411.122499
4427.450577
4428.981776
4427.140228
4426.130772
4426.354714
4429.089374
4427.754218
4434.025882
4430.178552
4431.184456
4425.958200
4425.733320
4422.648893
4425.545777
4421.729632
4437.665999
4438.724936
4442.388659
4418.425030
4467.243747
4462.400319
4441.459745
4433.786408
4468.164231
4439.744446
4435.542021
4452.482132
4445.230561
4433.975449
4276.448467
4429.444051
4427.905188
4430.015329
4428.770493
4432.284016
4427.736188
4429.649743
4425.225424
4428.199499
4423.866188
4425.987885
4424.833682
4429.194717
4426.180633
4427.205924
4420.587599
4427.309572
4412.642275
4408.131122
4428.511013
4447.990824
4416.041408
4436.662632
4444.590693
4429.392576
4417.706738
4415.924969
4442.651825
4453.512275
4447.090458
4377.423535
4395.683880