# vtk DataFile Version 2.0
mfree iwf
ASCII

DATASET UNSTRUCTURED_GRID
POINTS 10275 float
0.000000 0.000445 0.000000
0.000000 0.000450 0.000000
0.000000 0.000455 0.000000
0.000000 0.000460 0.000000
0.000000 0.000465 0.000000
0.000000 0.000470 0.000000
0.000000 0.000475 0.000000
0.000000 0.000480 0.000000
0.000000 0.000485 0.000000
0.000000 0.000490 0.000000
-0.000000 0.000496 0.000000
0.000002 0.000500 0.000000
0.000598 0.000854 0.000000
0.000606 0.000858 0.000000
0.000651 0.000872 0.000000
0.000657 0.000872 0.000000
0.000656 0.000872 0.000000
0.000663 0.000874 0.000000
0.000670 0.000875 0.000000
0.000666 0.000875 0.000000
0.000681 0.000877 0.000000
0.000707 0.000882 0.000000
0.000714 0.000881 0.000000
0.000718 0.000880 0.000000
0.000723 0.000879 0.000000
0.000728 0.000878 0.000000
0.000732 0.000877 0.000000
0.000738 0.000876 0.000000
0.000741 0.000875 0.000000
0.000748 0.000874 0.000000
0.000754 0.000872 0.000000
0.000779 0.000870 0.000000
0.000005 0.000445 0.000000
0.000005 0.000450 0.000000
0.000005 0.000455 0.000000
0.000005 0.000460 0.000000
0.000005 0.000465 0.000000
0.000005 0.000470 0.000000
0.000005 0.000475 0.000000
0.000005 0.000480 0.000000
0.000005 0.000485 0.000000
0.000006 0.000490 0.000000
0.000003 0.000496 0.000000
0.000006 0.000499 0.000000
0.000646 0.000870 0.000000
0.000656 0.000865 0.000000
0.000687 0.000877 0.000000
0.000694 0.000878 0.000000
0.000699 0.000879 0.000000
0.000703 0.000878 0.000000
0.000706 0.000878 0.000000
0.000710 0.000877 0.000000
0.000715 0.000875 0.000000
0.000721 0.000875 0.000000
0.000728 0.000873 0.000000
0.000734 0.000872 0.000000
0.000740 0.000869 0.000000
0.000749 0.000869 0.000000
0.000753 0.000868 0.000000
0.000759 0.000867 0.000000
0.000769 0.000869 0.000000
0.000772 0.000869 0.000000
0.000766 0.000870 0.000000
0.000777 0.000869 0.000000
0.000010 0.000445 0.000000
0.000010 0.000450 0.000000
0.000010 0.000455 0.000000
0.000010 0.000460 0.000000
0.000010 0.000465 0.000000
0.000011 0.000470 0.000000
0.000010 0.000475 0.000000
0.000011 0.000479 0.000000
0.000009 0.000486 0.000000
0.000012 0.000490 0.000000
0.000009 0.000497 0.000000
0.000011 0.000498 0.000000
0.000649 0.000866 0.000000
0.000659 0.000865 0.000000
0.000674 0.000871 0.000000
0.000681 0.000874 0.000000
0.000685 0.000875 0.000000
0.000691 0.000876 0.000000
0.000688 0.000869 0.000000
0.000696 0.000871 0.000000
0.000701 0.000872 0.000000
0.000707 0.000873 0.000000
0.000716 0.000871 0.000000
0.000722 0.000871 0.000000
0.000724 0.000867 0.000000
0.000729 0.000865 0.000000
0.000736 0.000868 0.000000
0.000746 0.000868 0.000000
0.000762 0.000866 0.000000
0.000764 0.000867 0.000000
0.000773 0.000865 0.000000
0.000777 0.000860 0.000000
0.000015 0.000445 0.000000
0.000016 0.000450 0.000000
0.000015 0.000455 0.000000
0.000016 0.000460 0.000000
0.000015 0.000465 0.000000
0.000016 0.000470 0.000000
0.000014 0.000476 0.000000
0.000016 0.000480 0.000000
0.000014 0.000485 0.000000
0.000016 0.000489 0.000000
0.000014 0.000495 0.000000
0.000016 0.000497 0.000000
0.000025 0.000500 0.000000
0.000663 0.000867 0.000000
0.000676 0.000871 0.000000
0.000677 0.000867 0.000000
0.000690 0.000870 0.000000
0.000696 0.000876 0.000000
0.000704 0.000869 0.000000
0.000709 0.000867 0.000000
0.000710 0.000863 0.000000
0.000717 0.000868 0.000000
0.000730 0.000858 0.000000
0.000730 0.000870 0.000000
0.000739 0.000861 0.000000
0.000742 0.000865 0.000000
0.000747 0.000862 0.000000
0.000751 0.000863 0.000000
0.000757 0.000861 0.000000
0.000762 0.000861 0.000000
0.000767 0.000860 0.000000
0.000776 0.000857 0.000000
0.000020 0.000445 0.000000
0.000021 0.000450 0.000000
0.000019 0.000455 0.000000
0.000022 0.000459 0.000000
0.000019 0.000466 0.000000
0.000024 0.000468 0.000000
0.000018 0.000474 0.000000
0.000022 0.000479 0.000000
0.000019 0.000486 0.000000
0.000021 0.000491 0.000000
0.000021 0.000497 0.000000
0.000022 0.000499 0.000000
0.000039 0.000500 0.000000
0.000666 0.000857 0.000000
0.000669 0.000864 0.000000
0.000677 0.000862 0.000000
0.000681 0.000869 0.000000
0.000692 0.000864 0.000000
0.000699 0.000860 0.000000
0.000712 0.000868 0.000000
0.000703 0.000865 0.000000
0.000719 0.000858 0.000000
0.000722 0.000854 0.000000
0.000729 0.000853 0.000000
0.000734 0.000860 0.000000
0.000743 0.000859 0.000000
0.000748 0.000856 0.000000
0.000756 0.000856 0.000000
0.000760 0.000856 0.000000
0.000768 0.000855 0.000000
0.000771 0.000859 0.000000
0.000776 0.000853 0.000000
0.000025 0.000445 0.000000
0.000026 0.000450 0.000000
0.000024 0.000455 0.000000
0.000026 0.000461 0.000000
0.000023 0.000465 0.000000
0.000025 0.000472 0.000000
0.000023 0.000476 0.000000
0.000027 0.000481 0.000000
0.000023 0.000485 0.000000
0.000026 0.000488 0.000000
0.000026 0.000492 0.000000
0.000027 0.000500 0.000000
0.000625 0.000865 0.000000
0.000667 0.000866 0.000000
0.000670 0.000868 0.000000
0.000686 0.000865 0.000000
0.000687 0.000860 0.000000
0.000698 0.000866 0.000000
0.000704 0.000860 0.000000
0.000696 0.000863 0.000000
0.000707 0.000855 0.000000
0.000716 0.000863 0.000000
0.000725 0.000863 0.000000
0.000721 0.000862 0.000000
0.000734 0.000864 0.000000
0.000738 0.000855 0.000000
0.000753 0.000858 0.000000
0.000747 0.000852 0.000000
0.000764 0.000855 0.000000
0.000758 0.000851 0.000000
0.000770 0.000851 0.000000
0.000775 0.000848 0.000000
0.000030 0.000445 0.000000
0.000031 0.000450 0.000000
0.000029 0.000456 0.000000
0.000030 0.000460 0.000000
0.000032 0.000464 0.000000
0.000028 0.000469 0.000000
0.000032 0.000472 0.000000
0.000030 0.000477 0.000000
0.000031 0.000486 0.000000
0.000031 0.000492 0.000000
0.000033 0.000497 0.000000
0.000030 0.000499 0.000000
0.000049 0.000500 0.000000
0.000658 0.000859 0.000000
0.000676 0.000858 0.000000
0.000682 0.000862 0.000000
0.000682 0.000857 0.000000
0.000692 0.000858 0.000000
0.000703 0.000855 0.000000
0.000714 0.000859 0.000000
0.000709 0.000858 0.000000
0.000717 0.000854 0.000000
0.000726 0.000858 0.000000
0.000739 0.000850 0.000000
0.000734 0.000853 0.000000
0.000742 0.000854 0.000000
0.000746 0.000848 0.000000
0.000752 0.000851 0.000000
0.000759 0.000846 0.000000
0.000764 0.000849 0.000000
0.000769 0.000847 0.000000
0.000774 0.000844 0.000000
0.000035 0.000445 0.000000
0.000035 0.000450 0.000000
0.000034 0.000456 0.000000
0.000038 0.000455 0.000000
0.000034 0.000467 0.000000
0.000037 0.000473 0.000000
0.000032 0.000479 0.000000
0.000042 0.000478 0.000000
0.000035 0.000483 0.000000
0.000034 0.000488 0.000000
0.000037 0.000491 0.000000
0.000036 0.000498 0.000000
0.000588 0.000847 0.000000
0.000621 0.000864 0.000000
0.000670 0.000857 0.000000
0.000679 0.000853 0.000000
0.000692 0.000854 0.000000
0.000689 0.000848 0.000000
0.000697 0.000856 0.000000
0.000702 0.000849 0.000000
0.000713 0.000851 0.000000
0.000712 0.000846 0.000000
0.000721 0.000845 0.000000
0.000730 0.000849 0.000000
0.000734 0.000847 0.000000
0.000744 0.000843 0.000000
0.000753 0.000847 0.000000
0.000752 0.000836 0.000000
0.000761 0.000845 0.000000
0.000764 0.000842 0.000000
0.000769 0.000843 0.000000
0.000773 0.000839 0.000000
0.000040 0.000445 0.000000
0.000041 0.000450 0.000000
0.000036 0.000462 0.000000
0.000040 0.000458 0.000000
0.000041 0.000463 0.000000
0.000040 0.000468 0.000000
0.000041 0.000472 0.000000
0.000037 0.000477 0.000000
0.000041 0.000488 0.000000
0.000042 0.000491 0.000000
0.000041 0.000497 0.000000
0.000044 0.000498 0.000000
0.000495 0.000719 0.000000
0.000652 0.000864 0.000000
0.000661 0.000856 0.000000
0.000677 0.000847 0.000000
0.000687 0.000855 0.000000
0.000699 0.000851 0.000000
0.000693 0.000850 0.000000
0.000708 0.000850 0.000000
0.000718 0.000849 0.000000
0.000724 0.000850 0.000000
0.000716 0.000844 0.000000
0.000730 0.000843 0.000000
0.000735 0.000841 0.000000
0.000742 0.000839 0.000000
0.000741 0.000845 0.000000
0.000749 0.000844 0.000000
0.000754 0.000842 0.000000
0.000761 0.000838 0.000000
0.000767 0.000838 0.000000
0.000772 0.000834 0.000000
0.000044 0.000445 0.000000
0.000047 0.000450 0.000000
0.000044 0.000454 0.000000
0.000046 0.000461 0.000000
0.000045 0.000468 0.000000
0.000046 0.000474 0.000000
0.000046 0.000479 0.000000
0.000040 0.000483 0.000000
0.000052 0.000486 0.000000
0.000045 0.000483 0.000000
0.000048 0.000493 0.000000
0.000050 0.000498 0.000000
0.000497 0.000728 0.000000
0.000643 0.000868 0.000000
0.000672 0.000861 0.000000
0.000683 0.000852 0.000000
0.000683 0.000847 0.000000
0.000698 0.000846 0.000000
0.000704 0.000843 0.000000
0.000707 0.000845 0.000000
0.000714 0.000839 0.000000
0.000724 0.000839 0.000000
0.000725 0.000846 0.000000
0.000737 0.000844 0.000000
0.000728 0.000839 0.000000
0.000741 0.000835 0.000000
0.000749 0.000839 0.000000
0.000756 0.000837 0.000000
0.000757 0.000832 0.000000
0.000762 0.000834 0.000000
0.000767 0.000833 0.000000
0.000771 0.000829 0.000000
0.000049 0.000445 0.000000
0.000052 0.000450 0.000000
0.000048 0.000456 0.000000
0.000053 0.000458 0.000000
0.000048 0.000464 0.000000
0.000050 0.000472 0.000000
0.000051 0.000467 0.000000
0.000051 0.000477 0.000000
0.000047 0.000488 0.000000
0.000052 0.000491 0.000000
0.000058 0.000492 0.000000
0.000053 0.000498 0.000000
0.000544 0.000808 0.000000
0.000638 0.000861 0.000000
0.000651 0.000859 0.000000
0.000675 0.000850 0.000000
0.000686 0.000844 0.000000
0.000692 0.000844 0.000000
0.000695 0.000839 0.000000
0.000699 0.000842 0.000000
0.000711 0.000836 0.000000
0.000709 0.000841 0.000000
0.000717 0.000835 0.000000
0.000728 0.000833 0.000000
0.000733 0.000836 0.000000
0.000736 0.000836 0.000000
0.000745 0.000834 0.000000
0.000750 0.000827 0.000000
0.000749 0.000832 0.000000
0.000761 0.000828 0.000000
0.000766 0.000828 0.000000
0.000770 0.000824 0.000000
0.000054 0.000445 0.000000
0.000057 0.000450 0.000000
0.000053 0.000454 0.000000
0.000053 0.000463 0.000000
0.000057 0.000467 0.000000
0.000054 0.000472 0.000000
0.000057 0.000477 0.000000
0.000057 0.000480 0.000000
0.000052 0.000483 0.000000
0.000056 0.000486 0.000000
0.000056 0.000497 0.000000
0.000059 0.000496 0.000000
0.000561 0.000824 0.000000
0.000641 0.000869 0.000000
0.000643 0.000862 0.000000
[...]
POINT_DATA 10275
SCALARS density float 1
LOOKUP_TABLE default
4428.324845
4429.915180
4429.002273
4425.512733
4432.225358
4429.720980
4429.556786
4430.268075
4438.391244
4423.777047
4430.873195
4400.663363
4417.091419
4427.807509
4435.591086
4431.822720
4441.548192
4437.654678
4443.772795
4439.562894
4430.754634
4424.288471
4412.644869
4450.068969
4429.425862
4421.273161
4445.429536
4438.337766
4414.817419
4451.340315
4428.999630
4421.824986
4429.928124
4428.890181
4425.464403
4432.427877
4431.584879
4420.794094
4431.605606
4425.723213
4405.823827
4415.230618
4456.353656
4407.842393
4426.160706
4440.690397
4417.043816
4420.573311
4418.107704
4431.842643
4445.027808
4439.044120
4437.466108
4398.852030
4435.337763
4399.868399
4430.309370
4398.322811
4413.792655
4469.104337
4406.170033
4433.213278
4395.294406
4407.717933
4427.260261
4430.166797
4432.909467
4429.006302
4419.240703
4421.472914
4451.773503
4386.820275
4488.225583
4372.883156
4455.917568
4397.317217
4419.709616
4447.115732
4424.844017
4399.185418
4420.822950
4416.506886
4483.858110
4391.174614
4422.161102
4400.932197
4411.357507
4451.327336
4425.675293
4420.434026
4449.034272
4416.580960
4441.217015
4434.502780
4469.614883
4415.927960
4426.164385
4433.816652
4442.297181
4414.423934
4451.771579
4400.595782
4471.693608
4376.622832
4478.071834
4376.287608
4524.324083
4401.991750
4437.919458
4382.962064
4433.406348
4428.218261
4449.029826
4463.973649
4417.438442
4446.361840
4407.171777
4437.160705
4424.269953
4421.292023
4414.245612
4437.894148
4448.325409
4470.164145
4418.040856
4351.432251
4497.458293
4461.536142
4435.253196
4432.431830
4446.572959
4430.697710
4436.941801
4430.107830
4420.203884
4453.349686
4476.673555
4368.440626
4473.474834
4437.052260
4419.219521
4412.247081
4455.537041
4435.354276
4474.631903
4407.947395
4436.708230
4434.091547
4453.665987
4429.322259
4419.469028
4424.305580
4444.366582
4419.204023
4406.519437
4466.650639
4457.478035
4439.122175
4335.111108
4418.510501
4429.315722
4425.508499
4439.173971
4415.464014
4434.567559
4415.324829
4473.525931
4341.200341
4439.445545
4473.591307
4401.104157
4429.445174
4433.623499
4445.711673
4403.025967
4376.176125
4480.651232
4417.149673
4383.234980
4440.679707
4438.241812
4428.331322
4448.485309
4420.118308
4442.697207
4452.240372
4390.718846
4468.255620
4443.623712
4402.863748
4451.654143
4416.648116
4426.382302
4429.065318
4426.833005
4433.934230
4438.469897
4444.906580
4395.350096
4462.711010
4443.947875
4414.200689
4459.202954
4424.212362
4420.219673
4421.119828
4454.605036
4444.814664
4403.751216
4427.190195
4447.568768
4443.695472
4456.485916
4453.590708
4427.008661
4405.955245
4416.022309
4427.433175
4409.515588
4416.678823
4451.969350
4368.511757
4436.702434
4439.901811
4430.866801
4425.716995
4438.399269
4438.837542
4439.163416
4428.915970
4455.932586
4428.399856
4414.645860
4424.720207
4411.516378
4444.192812
4427.038481
4423.786433
4434.138661
4415.791430
4444.653998
4439.723691
4421.232580
4417.444700
4401.231140
4448.656143
4432.066859
4441.648084
4428.832031
4433.868534
4425.121024
4461.387089
4479.547463
4424.927419
4408.745601
4418.969345
4431.584484
4426.750635
4422.880241
4444.028359
4420.262688
4434.694345
4445.648270
4414.162430
4453.620968
4429.161021
4436.319850
4424.844868
4436.249992
4404.102247
4422.565600
4441.149756
4400.636448
4445.845419
4429.860946
4427.190272
4430.936009
4423.881436
4439.526488
4404.040004
4414.752047
4407.992643
4448.018073
4441.350225
4418.913096
4397.062063
4434.798226
4435.228180
4438.698782
4415.714194
4417.458671
4431.325074
4405.515922
4425.811377
4441.913982
4422.378309
4444.144235
4420.719260
4471.194593
4433.535101
4435.568584
4443.583617
4387.642034
4462.726308
4407.790705
4428.694320
4432.823579
4448.926574
4432.089058
4435.955897
4433.936141
4444.149518
4441.824068
4455.078749
4430.489016
4453.726339
4400.825561
4458.647917
4418.763225
4423.178109
4428.745432
4424.738859
4419.654855
4417.577212
4448.822954
4442.481596
4428.024900
4387.366741
4382.508627
4423.457377
4509.837426
4411.535931
4439.223453
4421.146817
4417.354351
4445.815578
4455.943136
4402.008694
4438.444376
4435.714165
4432.293475
4418.619115
4453.480613
4437.293189
4441.909348
4417.098505
4435.652585
4467.700110
4402.716390
4424.638037
4427.649278
4431.859052
4435.926959
4429.292447
4447.548715
4403.680425
4416.246233
4456.204430
4419.032419
4444.696266
4471.244968
4368.074474
4421.142308
4409.568043
4429.727162
4429.244255
4437.657899
4419.162563
4467.031277
4414.740832
4395.633904
4421.008394
4412.211770
4426.205162
4413.219117
4406.536205
4415.562627
4440.070795
4429.623627
4422.618781
4422.122296
4434.745434
4429.368179
4431.559527
4427.515724
4435.347462
4416.704143
4400.173498
4449.172856
4430.759115
4414.428212
4413.937865
4453.135641
4409.006438
4440.492286
4432.038782
4406.145248
4429.670214
4440.314859
4383.498872
4371.011087
4451.630981
4427.734640
4456.354888
4445.567592
4417.283927
4446.020219
4424.147677
4400.040401
4425.760705
4438.636240
4428.810940
4417.564788
4442.194631
4421.558588
4436.566317
4438.014910
4417.707326
4446.276151
4395.115234
4452.120767
4442.140755
4449.195306
4397.556254
4464.139268
4383.328421
4463.408190
4427.523352
4417.192650
4423.999736
4442.237446
4466.127177
4432.731906
4396.825952
4430.629143
4408.396140
4380.851202
4439.347462
4451.081699
4442.393834
4438.785655
4416.606461
4441.804975
4447.908606
4421.264042
4443.115345
4420.654843
4426.241137
4425.147250
4418.805265
4431.704018
4438.773980
4461.423308
4453.313637
4426.125669
4427.340379
4416.026939
4409.400196
4436.534467
4456.763335
4425.697441
4426.879846
4438.876976
4465.449415
4460.605242
4448.826398
4457.099128
4458.197287
4362.770459
4449.040011
4449.851668
4428.613374
4432.781505
4420.673650
4432.262433
4403.336071
4412.299439
4408.786463
4439.552453
4435.517084
4433.350665
4427.921473
4444.556944
4414.248737
4395.930324
4435.168202
4469.934805
4425.712845
4459.270614
4354.952236
4406.322447
4457.761214
4434.922142
4410.620235
4422.266429
4408.104845
4429.721684
4443.907215
4409.017514
4436.215436
4431.952598
4397.919520
4419.765894
4443.350933
4409.863699
4448.761827
4418.680350
4443.279781
4427.553117
4442.186171
4421.516364
4418.609548
4407.588798
4415.219127
4453.483731
4419.085840
4394.111332
4407.898916
4382.649873
4478.041494
4443.469964
4511.413578
4386.821698
4429.385532
4428.918266
4421.027210
4437.783559
4422.646969
4463.775701
4438.015070
4417.781825
4433.903802
4436.482745
4431.412373
4464.411785
4416.593863
4432.777569
4417.109724
4421.729624
4459.724010
4400.706789
4452.564643
4419.161512
4441.920745
4443.682144
4413.933788
4427.863871
4434.829885
4447.021954
4409.148382
4433.927684
4427.846614
4390.453267
4393.322146
4443.086135
4491.510448
4428.050967
4433.359850
4445.166947
4437.054468
4380.943361
4396.047924
4471.344896
4483.589809
4408.200813
4452.068602
4424.581101
4442.770296
4413.705674
4446.611269
4431.357607
4405.039104
4452.595632
4434.928375
4420.657611
4432.503967
4425.107139
4423.950519
4427.574204
4409.560664
4434.839410
4445.236626
4453.244197
4464.987651
4448.062475
4404.366647
4413.570890
4426.978378
4416.578398
4420.227156
4428.265155
4425.193609
4423.970216
4406.395275
4465.976231
4429.828465
4408.811911
4447.684708
4413.535634
4400.774502
4441.222631
4443.208591
4437.752769
4440.520238
4445.726883
4414.591548
4429.150494
4418.028134
4449.658690
4437.487799
4445.045377
4434.329117
4430.377852
4417.195915
4411.823089
4411.344913
4441.941982
4439.020797
4432.343224
4431.778829
4427.993319
4438.835057
4444.999647
4446.159824
4429.616536
4469.743809
4429.346285
4438.699023
4491.089370
4425.863066
4444.081604
4424.662145
4448.437033
4431.827781
4412.708677
4435.520582
4392.818407
4442.609055
4446.742917
4433.016393
4410.138344
4387.205272
4425.515238
4445.784234
4420.887741
4426.232219
4401.338716
4406.693232
4452.843661
4486.184695
4398.570824
4511.085319
4426.543107
4427.455002
4431.309561
4452.773857
4439.421150
4421.035478
4425.725371
4435.675621
4418.407658
4458.088545
4457.037072
4465.656330
4440.479868
4445.749320
4414.918693
4466.348661
4452.548652
4439.463754
4400.272361
4437.348802
4448.276203
4426.184467
4425.511329
4408.616113
4422.473820
4441.827707
4392.106024
4444.427553
4445.564442
4379.533075
4441.125301
4432.279616
4417.835028
4432.424183
4418.772759
4434.936334
4450.246782
4400.594713
4466.780606
4453.173120
4394.439107
4348.617136
4428.403667
4412.984560
4445.245256
4416.845942
4449.237494
4400.769397
4413.524663
4422.655990
4429.032523
4441.756703
4416.164758
4457.420649
4440.909589
4400.341693
4441.235456
4436.552837
4422.270353
4395.178096
4444.431747
4408.643997
4379.690004
4468.330934
4429.129684
4444.285987
4402.945309
4457.000649
4464.348340
4449.695824
4427.624324
4424.790487
4432.481286
4382.824345
4388.698245
4439.485785
4388.697719
4389.160671
4439.686277
4444.457105
4440.482448
4419.163462
4417.806754
4420.188921
4430.315674
4420.983345
4418.424702
4430.202750
4454.679886
4435.026070
4397.024433
4451.336076
4447.430046
4455.546669
4412.866079
4426.289155
4426.107104
4438.799960
4411.721435
4377.139779
4417.419245
4457.627752
4437.252370
4471.804110
4400.807006
4432.282295
4445.381961
4439.404566
4459.597814
4463.921738
4428.309594
4423.168945
4436.436370
4419.838429
4458.870449
4419.811361
4425.235711
4429.813540
4429.534998
4429.723540
4429.790911
4429.716083
4429.887115
4429.960136
4430.443901
4430.871635
4431.364198
4431.351952
4431.106130
4430.770113
4430.142741
4426.902547
4429.640132
4429.489016
4430.172103
4430.610561
4431.143084
4431.458681
4431.432373
4431.030899
4429.926784
4429.349185
4429.222844
4429.945253
4430.567575
4430.547091
4428.032468
4429.344995
4429.019996
4429.224750
4429.239861
4428.674289
4428.954257
4428.814002
4429.749174
4430.938205
4431.985756
4431.886097
4430.928493
4430.285062
4429.081378
4428.634931
4429.360759
4429.579300
4429.816572
4430.471213
4430.879353
4431.390942
4431.227336
4430.786850
4429.291260
4428.296874
4428.165658
4428.485250
4429.308200
4429.967480
4429.124535
4429.295266
4429.193447
4429.102085
4428.926606
4428.419970
4428.455437
4428.252599
4429.341065
4430.225973
4431.918543
4431.040310
4431.233315
4428.631613
4428.825305
4429.165299
4429.400459
4429.651874
4429.507901
4430.541282
4430.363351
4431.400372
4430.706291
4430.637479
4428.711197
4428.002454
4427.339456
4428.523675
4428.113047
4429.905917
4429.168962
4429.194844
4429.360379
4428.856955
4428.852524
4428.146045
4428.210830
4427.870199
4429.046228
4429.893537
4431.507334
4430.937607
4430.030095
4428.319815
4427.667649
4429.251706
4429.362463
4429.540245
4429.471013
4430.263360
4430.244463
4431.087421
4430.569379
4430.306660
4428.465253
4427.932651
4426.969820
4428.668659
4427.992206
4428.978592
4428.903898
4429.135830
4429.290064
4428.538861
4428.880539
4427.757622
4428.160095
4427.398406
4428.904787
4429.664214
4431.258153
4431.303052
4430.750658
4428.862715
4431.269925
4429.083329
4429.311104
4429.332395
4429.436888
4429.930952
4430.201926
4430.655290
4430.514128
4429.953026
4428.253723
4427.986727
4426.756406
4429.423595
4429.392200
4428.494232
4428.720733
4429.259135
4428.827126
4428.737775
4428.291363
4427.863810
4427.610428
4427.243106
4428.487655
4429.572635
4430.684531
4431.450537
4429.637701
4429.268097
4429.413360
4428.766864
4429.255483
4429.097459
4429.227938
4429.710175
4429.958072
4430.234607
4430.531076
4429.448101
4428.308763
4427.356041
4426.607853
4428.561439
4427.915817
4429.110626
4428.708438
4429.016428
4428.769205
4428.617233
4427.971537
4427.738207
4427.338913
4426.994991
4428.121751
4429.209289
4430.463861
4430.905921
4429.960125
4429.317551
4431.590901
4461.538311
4419.698588
4441.049332
4445.112759
4428.355346
4465.789861
4433.242670
4426.268185
4368.290762
4453.571632
4454.486096
4403.737953
4424.309303
4460.500318
4418.878047
4427.662798
4428.596865
4428.998008
4428.998579
4428.820767
4429.648165
4429.495860
4430.223566
4430.034528
4429.474854
4427.562285
4427.168237
4426.324316
4427.946916
4429.203973
4429.832195
4451.870078
4404.386739
4417.773267
4399.457310
4420.955730
4444.465346
4432.638090
4364.205153
4409.716599
4444.966433
4385.735889
4448.248721
4426.882521
4460.664192
4404.451643
4393.921056
4428.102276
4428.737681
4428.705914
4428.078043
4428.052394
4427.084764
4427.337300
4426.395034
4427.615010
4428.684142
4429.939301
4429.936155
4429.664584
4428.309198
4429.786687
4434.591381
4440.127563
4413.744894
4448.555332
4408.469768
4445.580015
4413.372584
4426.195622
4415.863326
4453.482916
4419.596476
4423.125340
4440.746304
4420.516549
4460.066937
4438.441172
4428.281288
4428.759093
4428.687696
4428.627227
4429.098830
4429.288889
4429.711737
4429.718781
4429.070517
4426.966123
4426.790296
4425.468155
4427.130788
4425.904789
4429.200414
4417.302463
4402.046902
4427.758371
4393.481111
4409.511590
4446.377616
4426.383713
4424.198817
4436.173894
4412.430353
4422.019589
4434.261887
4385.789001
4387.679762
4426.171095
4447.337734
4427.758668
4428.579821
4428.485814
4427.618642
4427.935934
4426.622197
4427.177892
4425.941733
4427.203396
4428.220902
4429.284918
4428.955230
4428.112588
4425.472517
4424.305695
4439.405955
4445.282562
4435.236360
4464.203655
4447.338962
4430.501760
4444.281640
4431.607015
4404.020545
4425.788406
4448.821020
4428.392066
4403.877309
4441.799940
4432.057425
4420.798941
4427.799339
4428.655594
4428.271986
4428.615260
4428.604938
4429.219780
4429.367196
4429.622609
4428.784672
4426.570374
4426.380123
4425.054124
4425.951804
4425.358243
4424.734975
4411.345558
4414.518122
4445.867345
4412.795173
4495.236153
4387.646646
4441.841218
4435.897302
4452.308753
4408.134214
4370.535545
4453.694881
4406.082046
4425.123404
4441.824231
4419.208834
4427.828242
4428.375031
4428.348456
4427.549639
4427.626588
4426.887331
4426.752323
4426.096233
4426.519229
4428.386604
4428.236930
4429.097484
4426.740204
4425.814082
4426.216370
4455.877788
4421.371227
4440.875484
4413.631680
4364.486350
4442.723626
4424.948451
4430.285569
4429.767570
4410.091182
4428.058600
4470.464007
4465.743776
4380.007252
4471.978509
4399.044317
4427.499925
4428.376122
4428.331200
4428.094642
4428.833902
4428.706575
4429.327187
4429.388302
4428.704290
4426.214493
4426.713279
4424.655436
4426.362597
4426.648387
4425.044294
4428.557629
4435.652038
4432.566775
4457.238113
4405.687976
4462.624546
4414.200968
4414.716162
4424.013819
4405.436974
4447.784783
4392.519231
4442.182151
4405.427524
4425.895827
4445.305116
4427.474229
4428.152705
4428.248921
4427.413530
4427.650145
4426.359274
4427.313973
4425.029052
4427.100501
4427.387199
4428.783266
4428.883554
4427.795393
4426.486605
4428.405994
4425.011292
4422.767998
4429.168840
4406.944644
4453.619820
4431.621558
4432.853307
4423.777278
4390.087017
4442.275002
4404.403275
4391.049526
4426.904970
4449.462019
4422.152527
4397.478155
4427.400717
4428.017594
4428.548803
4427.405413
4429.033334
4428.206295
4429.005812
4429.328664
4428.300297
4426.116705
4426.856363
4424.649697
4427.929044
4426.100939
4429.237130
4424.022090
4443.392091
4465.805290
4450.728266
4369.739863
4413.651619
4429.318654
4441.413343
4409.808810
4448.542609
4420.883847
4406.064340
4360.616102
4469.646265
4451.907663
4445.562133
4427.215480
4428.099134
4428.028155
4427.444422
4427.257237
4426.160404
4426.982931
4424.763044
4426.399904
4427.304587
4428.292524
4428.752982
4427.376841
4426.145200
4427.621478
4434.275323
4416.973552
4422.843399
4441.038133
4442.524642
4430.961257
4438.205103
4475.143704
4417.095206
4450.092817
4429.506930
4438.768650
4454.063707
4359.472744
4415.522049
4384.183606
4427.366684
4428.113378
4428.024937
4427.521210
4428.208508
4428.145864
4428.500788
4428.934412
4428.479665
4425.831088
4426.762209
4424.721249
4426.714553
4426.337477
4424.794901
4410.853408
4447.832190
4409.527075
4398.809600
4378.033441
4421.024446
4450.080637
4447.555821
4466.368561
4399.563321
4455.894246
4393.599051
4431.682086
4414.911760
4426.746631
4444.941713
4427.010379
4427.899037
4428.200035
4426.637131
4427.643239
4425.736338
4427.024937
4425.128714
4425.974937
4427.452986
4427.773466
4428.115796
4425.800187
4425.649438
4425.114304
4420.786929
4445.994697
4435.480918
4412.782539
4424.692476
4443.642579
4435.946729
4435.641103
4415.602743
4422.295970
4400.185119
4463.678500
4426.806681
4454.544722
4506.133256
4457.754403
4427.207614
4428.331774
4427.413094
4428.088854
4427.555519
4428.852892
4428.179330
4429.227933
4428.386831
4425.988998
4425.970273
4424.851574
4426.305213
4424.874161
4427.352430
4447.790825
4447.544184
4421.126315
4445.720371
4432.601885
4422.479908
4424.346031
4437.509615
4410.212561
4399.700924
4437.501957
4440.869956
4413.237943
4443.589834
4421.161847
4452.223306
4426.807667
4428.224190
4427.682389
4427.335421
4427.070024
4426.698330
4426.254446
4425.467901
4425.384012
4426.665257
4427.485729
4426.985688
4425.532380
4425.095167
4423.882034
4432.893480
4408.059746
4423.982842
4423.030026
4448.824620
4431.807598
4470.704011
4448.112045
4421.395206
4454.064825
4412.963262
4407.350873
4427.210915
4425.537470
4402.888779
4403.971271
4426.995186
4428.004817
4427.837204
4427.240846
4428.521409
4427.876250
4428.531491
4428.802003
4428.392413
4426.263917
4426.080854
4425.064528
4425.625866
4425.724632
4425.245330
4410.097046
4437.526296
4417.923768
4426.798626
4360.556587
4441.470472
4470.933693
4429.963814
4401.454373
4462.394805
4424.932929
4441.947689
4449.572576
4442.575730
4401.492963
4430.437108
4427.070591
4428.084959
4427.783799
4427.755251
4426.692442
4427.052704
4426.549470
4425.568001
4425.724563
4426.563680
4427.308359
4427.094310
4425.759339
4423.752188
4426.790781
4400.712013
4407.143281
4408.184191
4455.452456
4390.251447
4433.288523
4442.728472
4449.279695
4420.792899
4442.921717
4457.903639
4416.521742
4399.312119
4440.715232
4433.487824
4429.240713
4427.028718
4427.913575
4427.651582
4426.846086
4428.069530
4427.252592
4428.251851
4428.298897
4427.590515
4425.612495
4426.287102
4423.315170
4426.225967
4424.681866
4423.542205
4432.929439
4434.033905
4449.952144
4438.990412
4378.538271
4410.400304
4435.556955
4424.744114
4454.317125
4459.085367
4436.813785
4414.051551
4455.127294
4443.563998
4472.244288
4431.232828
4426.841346
4427.300537
4428.457839
4425.705283
4427.686118
4424.500368
4427.109755
4423.131538
4425.285656
4425.293645
4426.200016
4427.257973
4423.628391
4423.223729
4424.270394
4408.981995
4462.508500
4426.176963
4468.205528
4383.134949
4439.224412
4422.801136
4424.706804
4429.941777
4440.856216
4448.856322
4449.627755
4424.035804
4452.898175
4386.604221
4416.905803
4426.998114
4427.933679
4427.243832
4427.216023
4426.948472
4427.792505
4427.879988
4428.647942
4428.406151
4427.017439
4427.246355
4424.381825
4425.690561
4423.594468
4425.001221
4421.279614
4424.068224
4415.063084
4380.836176
4418.537552
4454.851894
4725.296368
4410.813308
4448.156051
4448.804258
4390.372654
4414.070410
4376.667663
4424.000674
4353.987301
4433.678454
4426.788643
4427.851609
4427.442378
4426.836913
4427.408226
4426.299073
4427.067943
4425.642519
4426.566976
4425.839230
4427.932371
4425.842023
4424.411047
4423.195901
4423.730192
4422.380525
4442.276646
4444.176212
4416.318105
4441.711357
4425.406184
4487.505625
4473.973362
4394.744602
4431.602422
4442.629529
4416.273179
4441.240433
4414.459111
4532.135945
4417.188980
4426.685432
4427.590709
4428.097846
4426.505937
4428.125264
4427.310077
4427.764935
4428.079657
4428.205683
4426.025346
4425.181380
4424.777060
4425.325231
4424.157984
4422.752520
4433.638574
4418.597129
4431.504844
4413.606719
4466.684784
4465.205717
4466.125235
4382.653059
4453.030499
4436.244558
4458.740952
4426.674538
4444.854421
4424.087403
4326.902715
4430.036790
4427.091424
4428.310954
4427.196269
4428.317968
4426.184276
4426.856746
4425.422158
4425.340904
4423.916163
4424.216757
4424.815830
4423.492458
4423.313130
4423.365687
4422.823813
4433.863048
4417.127855
4403.188591
4434.518494
4452.952145
4409.013889
4479.868971
4469.044155
4435.151783
4416.293022
4413.823094
4461.313714
4443.038182
4380.467165
4387.935586
4406.645574