# vtk DataFile Version 2.0
mfree iwf
ASCII

DATASET UNSTRUCTURED_GRID
POINTS 11871 float
-0.000000 0.000445 0.000000
-0.000000 0.000450 0.000000
-0.000000 0.000455 0.000000
-0.000000 0.000460 0.000000
-0.000000 0.000465 0.000000
-0.000000 0.000470 0.000000
-0.000000 0.000475 0.000000
-0.000000 0.000480 0.000000
0.000000 0.000485 0.000000
0.000000 0.000490 0.000000
-0.000000 0.000496 0.000000
0.000002 0.000500 0.000000
0.001161 0.001038 0.000000
0.001170 0.001037 0.000000
0.001214 0.001020 0.000000
0.001219 0.001017 0.000000
0.001218 0.001017 0.000000
0.001225 0.001014 0.000000
0.001232 0.001010 0.000000
0.001227 0.001013 0.000000
0.001240 0.001006 0.000000
0.001264 0.000994 0.000000
0.001269 0.000989 0.000000
0.001272 0.000985 0.000000
0.001275 0.000982 0.000000
0.001279 0.000978 0.000000
0.001282 0.000974 0.000000
0.001285 0.000970 0.000000
0.001287 0.000967 0.000000
0.001292 0.000962 0.000000
0.001296 0.000958 0.000000
0.001314 0.000945 0.000000
0.000005 0.000445 0.000000
0.000005 0.000450 0.000000
0.000005 0.000455 0.000000
0.000005 0.000460 0.000000
0.000005 0.000465 0.000000
0.000005 0.000470 0.000000
0.000005 0.000475 0.000000
0.000005 0.000480 0.000000
0.000005 0.000485 0.000000
0.000006 0.000489 0.000000
0.000003 0.000496 0.000000
0.000006 0.000499 0.000000
0.001209 0.001021 0.000000
0.001213 0.001011 0.000000
0.001246 0.001001 0.000000
0.001252 0.000998 0.000000
0.001256 0.000995 0.000000
0.001259 0.000993 0.000000
0.001261 0.000991 0.000000
0.001264 0.000987 0.000000
0.001266 0.000984 0.000000
0.001271 0.000979 0.000000
0.001276 0.000974 0.000000
0.001280 0.000970 0.000000
0.001283 0.000964 0.000000
0.001290 0.000958 0.000000
0.001292 0.000954 0.000000
0.001296 0.000951 0.000000
0.001306 0.000946 0.000000
0.001308 0.000945 0.000000
0.001304 0.000948 0.000000
0.001312 0.000943 0.000000
0.000010 0.000445 0.000000
0.000010 0.000450 0.000000
0.000010 0.000455 0.000000
0.000010 0.000460 0.000000
0.000010 0.000465 0.000000
0.000010 0.000469 0.000000
0.000010 0.000475 0.000000
0.000011 0.000479 0.000000
0.000009 0.000486 0.000000
0.000012 0.000489 0.000000
0.000008 0.000497 0.000000
0.000011 0.000498 0.000000
0.001208 0.001017 0.000000
0.001216 0.001010 0.000000
0.001232 0.001006 0.000000
0.001239 0.001003 0.000000
0.001243 0.001001 0.000000
0.001248 0.000999 0.000000
0.001239 0.000997 0.000000
0.001246 0.000993 0.000000
0.001251 0.000990 0.000000
0.001257 0.000987 0.000000
0.001265 0.000980 0.000000
0.001270 0.000976 0.000000
0.001269 0.000969 0.000000
0.001274 0.000967 0.000000
0.001278 0.000966 0.000000
0.001286 0.000959 0.000000
0.001299 0.000948 0.000000
0.001300 0.000947 0.000000
0.001305 0.000941 0.000000
0.001306 0.000935 0.000000
0.000015 0.000445 0.000000
0.000016 0.000450 0.000000
0.000014 0.000456 0.000000
0.000017 0.000460 0.000000
0.000014 0.000469 0.000000
0.000015 0.000465 0.000000
0.000014 0.000476 0.000000
0.000017 0.000480 0.000000
0.000014 0.000484 0.000000
0.000016 0.000489 0.000000
0.000014 0.000495 0.000000
0.000016 0.000497 0.000000
0.000025 0.000500 0.000000
0.001220 0.001010 0.000000
0.001234 0.001004 0.000000
0.001228 0.001001 0.000000
0.001242 0.000995 0.000000
0.001252 0.000996 0.000000
0.001252 0.000987 0.000000
0.001260 0.000982 0.000000
0.001255 0.000981 0.000000
0.001261 0.000978 0.000000
0.001269 0.000964 0.000000
0.001272 0.000973 0.000000
0.001278 0.000959 0.000000
0.001283 0.000960 0.000000
0.001282 0.000954 0.000000
0.001287 0.000953 0.000000
0.001291 0.000948 0.000000
0.001294 0.000945 0.000000
0.001298 0.000941 0.000000
0.001304 0.000933 0.000000
0.000019 0.000445 0.000000
0.000021 0.000450 0.000000
0.000018 0.000455 0.000000
0.000022 0.000459 0.000000
0.000019 0.000469 0.000000
0.000024 0.000467 0.000000
0.000018 0.000474 0.000000
0.000022 0.000479 0.000000
0.000019 0.000486 0.000000
0.000021 0.000491 0.000000
0.000020 0.000497 0.000000
0.000022 0.000499 0.000000
0.000039 0.000500 0.000000
0.001215 0.000998 0.000000
0.001222 0.001003 0.000000
0.001230 0.000996 0.000000
0.001235 0.001000 0.000000
0.001245 0.000989 0.000000
0.001243 0.000984 0.000000
0.001256 0.000977 0.000000
0.001246 0.000982 0.000000
0.001259 0.000972 0.000000
0.001258 0.000963 0.000000
0.001263 0.000958 0.000000
0.001269 0.000958 0.000000
0.001277 0.000953 0.000000
0.001281 0.000945 0.000000
0.001287 0.000944 0.000000
0.001291 0.000941 0.000000
0.001298 0.000936 0.000000
0.001301 0.000937 0.000000
0.001301 0.000929 0.000000
0.000024 0.000445 0.000000
0.000026 0.000450 0.000000
0.000024 0.000455 0.000000
0.000026 0.000461 0.000000
0.000021 0.000465 0.000000
0.000025 0.000472 0.000000
0.000023 0.000476 0.000000
0.000027 0.000481 0.000000
0.000023 0.000485 0.000000
0.000026 0.000488 0.000000
0.000026 0.000492 0.000000
0.000027 0.000500 0.000000
0.001190 0.001030 0.000000
0.001222 0.001007 0.000000
0.001227 0.001006 0.000000
0.001239 0.000990 0.000000
0.001235 0.000993 0.000000
0.001252 0.000984 0.000000
0.001249 0.000977 0.000000
0.001240 0.000985 0.000000
0.001246 0.000973 0.000000
0.001264 0.000974 0.000000
0.001262 0.000966 0.000000
0.001264 0.000970 0.000000
0.001273 0.000962 0.000000
0.001274 0.000956 0.000000
0.001285 0.000948 0.000000
0.001281 0.000949 0.000000
0.001293 0.000937 0.000000
0.001286 0.000938 0.000000
0.001295 0.000932 0.000000
0.001296 0.000926 0.000000
0.000030 0.000445 0.000000
0.000031 0.000450 0.000000
0.000029 0.000455 0.000000
0.000031 0.000460 0.000000
0.000031 0.000464 0.000000
0.000028 0.000469 0.000000
0.000031 0.000472 0.000000
0.000030 0.000477 0.000000
0.000030 0.000486 0.000000
0.000031 0.000492 0.000000
0.000033 0.000497 0.000000
0.000030 0.000499 0.000000
0.000048 0.000500 0.000000
0.001211 0.001006 0.000000
0.001223 0.000994 0.000000
0.001231 0.000990 0.000000
0.001228 0.000992 0.000000
0.001235 0.000987 0.000000
0.001241 0.000976 0.000000
0.001253 0.000965 0.000000
0.001253 0.000973 0.000000
0.001256 0.000968 0.000000
0.001266 0.000962 0.000000
0.001267 0.000949 0.000000
0.001270 0.000954 0.000000
0.001273 0.000949 0.000000
0.001276 0.000940 0.000000
0.001277 0.000946 0.000000
0.001283 0.000935 0.000000
0.001289 0.000934 0.000000
0.001292 0.000929 0.000000
0.001294 0.000923 0.000000
0.000035 0.000445 0.000000
0.000035 0.000450 0.000000
0.000034 0.000456 0.000000
0.000038 0.000454 0.000000
0.000035 0.000467 0.000000
0.000036 0.000472 0.000000
0.000032 0.000479 0.000000
0.000041 0.000479 0.000000
0.000034 0.000483 0.000000
0.000034 0.000488 0.000000
0.000037 0.000491 0.000000
0.000036 0.000498 0.000000
0.001148 0.001039 0.000000
0.001186 0.001032 0.000000
0.001219 0.000998 0.000000
0.001224 0.000988 0.000000
0.001236 0.000979 0.000000
0.001227 0.000977 0.000000
0.001245 0.000978 0.000000
0.001242 0.000971 0.000000
0.001250 0.000970 0.000000
0.001241 0.000962 0.000000
0.001249 0.000955 0.000000
0.001263 0.000950 0.000000
0.001264 0.000954 0.000000
0.001268 0.000945 0.000000
0.001281 0.000939 0.000000
0.001271 0.000928 0.000000
0.001284 0.000929 0.000000
0.001286 0.000930 0.000000
0.001289 0.000925 0.000000
0.001290 0.000919 0.000000
0.000040 0.000445 0.000000
0.000041 0.000450 0.000000
0.000036 0.000461 0.000000
0.000040 0.000458 0.000000
0.000042 0.000463 0.000000
0.000039 0.000468 0.000000
0.000041 0.000473 0.000000
0.000037 0.000477 0.000000
0.000041 0.000488 0.000000
0.000042 0.000491 0.000000
0.000041 0.000497 0.000000
0.000044 0.000498 0.000000
0.000998 0.000997 0.000000
0.001209 0.001013 0.000000
0.001211 0.001002 0.000000
0.001219 0.000985 0.000000
0.001233 0.000983 0.000000
0.001236 0.000974 0.000000
0.001233 0.000979 0.000000
0.001247 0.000966 0.000000
0.001253 0.000959 0.000000
0.001258 0.000959 0.000000
0.001249 0.000961 0.000000
0.001251 0.000945 0.000000
0.001261 0.000943 0.000000
0.001267 0.000937 0.000000
0.001273 0.000944 0.000000
0.001272 0.000939 0.000000
0.001278 0.000934 0.000000
0.001279 0.000927 0.000000
0.001285 0.000922 0.000000
0.001286 0.000916 0.000000
0.000044 0.000445 0.000000
0.000046 0.000450 0.000000
0.000044 0.000455 0.000000
0.000046 0.000460 0.000000
0.000044 0.000467 0.000000
0.000046 0.000474 0.000000
0.000046 0.000478 0.000000
0.000039 0.000483 0.000000
0.000052 0.000485 0.000000
0.000045 0.000483 0.000000
0.000048 0.000492 0.000000
0.000050 0.000498 0.000000
0.001004 0.001001 0.000000
0.001205 0.001022 0.000000
0.001224 0.000997 0.000000
0.001228 0.000984 0.000000
0.001224 0.000983 0.000000
0.001236 0.000970 0.000000
0.001236 0.000966 0.000000
0.001242 0.000966 0.000000
0.001243 0.000955 0.000000
0.001254 0.000952 0.000000
0.001258 0.000955 0.000000
0.001265 0.000941 0.000000
0.001257 0.000943 0.000000
0.001263 0.000936 0.000000
0.001272 0.000934 0.000000
0.001275 0.000931 0.000000
0.001275 0.000924 0.000000
0.001279 0.000922 0.000000
0.001282 0.000919 0.000000
0.001282 0.000913 0.000000
0.000049 0.000445 0.000000
0.000053 0.000450 0.000000
0.000049 0.000454 0.000000
0.000052 0.000456 0.000000
0.000048 0.000465 0.000000
0.000049 0.000471 0.000000
0.000053 0.000467 0.000000
0.000051 0.000478 0.000000
0.000047 0.000488 0.000000
0.000052 0.000491 0.000000
0.000057 0.000492 0.000000
0.000053 0.000498 0.000000
0.001091 0.001035 0.000000
0.001196 0.001020 0.000000
0.001207 0.001009 0.000000
0.001219 0.000988 0.000000
0.001225 0.000976 0.000000
0.001231 0.000973 0.000000
0.001227 0.000969 0.000000
0.001231 0.000967 0.000000
0.001237 0.000956 0.000000
0.001245 0.000959 0.000000
0.001242 0.000953 0.000000
0.001253 0.000950 0.000000
0.001251 0.000938 0.000000
0.001259 0.000948 0.000000
0.001262 0.000932 0.000000
0.001265 0.000925 0.000000
0.001267 0.000931 0.000000
0.001273 0.000920 0.000000
0.001278 0.000915 0.000000
0.001279 0.000910 0.000000
0.000053 0.000445 0.000000
0.000058 0.000450 0.000000
0.000055 0.000459 0.000000
0.000051 0.000461 0.000000
0.000060 0.000465 0.000000
0.000053 0.000473 0.000000
0.000057 0.000476 0.000000
0.000057 0.000480 0.000000
0.000052 0.000483 0.000000
0.000056 0.000486 0.000000
0.000056 0.000497 0.000000
0.000059 0.000496 0.000000
0.001114 0.001037 0.000000
0.001204 0.001024 0.000000
[...]
POINT_DATA 11871
SCALARS density float 1
LOOKUP_TABLE default
4428.611588
4431.264032
4425.339171
4427.907794
4432.029551
4427.030159
4434.460124
4427.798014
4430.488749
4419.776848
4429.859737
4405.902589
4433.395281
4420.347188
4415.126395
4434.052889
4432.238599
4430.502266
4446.100887
4441.470200
4432.027802
4423.501461
4403.406767
4434.556621
4425.353307
4423.394591
4452.575304
4420.841275
4419.242010
4447.565776
4424.375869
4409.712369
4430.998795
4430.423388
4429.301759
4427.674793
4429.978157
4420.867814
4429.561230
4423.742463
4423.042759
4433.097873
4449.234771
4409.096183
4411.878747
4427.753905
4418.130835
4409.779193
4425.872662
4429.097365
4439.373321
4460.601556
4444.041513
4431.824527
4410.848778
4389.981169
4437.612963
4397.564256
4433.130002
4457.352875
4418.533858
4439.904968
4402.150396
4410.487474
4421.315792
4426.277333
4437.270477
4420.895408
4432.959335
4422.633333
4451.630834
4394.788418
4464.819252
4380.900346
4447.512593
4401.173638
4461.868869
4432.138194
4426.102131
4396.235477
4417.939442
4411.778240
4470.804887
4442.280102
4442.298560
4385.240784
4410.500236
4430.393078
4393.075224
4453.696579
4450.737848
4396.982616
4426.769321
4437.246779
4446.599815
4408.116495
4424.329602
4439.009372
4440.607142
4417.210440
4421.748660
4446.508986
4458.527513
4386.478218
4470.209576
4391.151266
4508.090506
4405.131267
4434.743251
4417.112772
4413.847383
4468.213086
4443.247205
4436.960722
4422.638131
4393.599846
4445.115826
4431.693202
4435.931142
4442.909608
4397.808689
4470.176392
4420.507044
4477.658291
4429.775540
4359.238002
4487.892975
4442.474116
4437.963133
4424.936539
4437.908209
4442.761582
4405.458152
4445.286006
4427.127122
4445.319955
4474.631766
4368.649973
4465.113765
4433.723869
4415.912764
4442.486131
4460.472935
4391.308950
4460.483566
4407.786792
4458.667559
4430.834374
4426.937479
4398.655770
4418.391883
4421.379320
4422.617909
4434.384208
4410.467322
4467.057341
4463.673666
4417.421471
4385.859334
4420.536838
4432.364568
4435.123416
4439.519798
4405.483678
4436.421908
4416.364617
4460.185812
4371.597138
4425.742057
4474.961088
4421.673156
4425.258140
4435.716244
4432.046315
4373.437321
4439.096472
4384.885246
4447.113351
4391.272793
4431.695564
4479.510525
4450.210916
4426.327454
4451.602492
4427.533906
4465.420073
4388.762626
4423.829142
4407.829677
4420.276149
4475.124440
4408.656694
4423.617653
4429.312926
4416.792940
4446.640687
4440.174684
4445.095495
4395.164982
4447.823851
4444.582600
4405.569189
4453.139488
4421.011395
4423.941143
4445.290260
4457.891949
4459.543927
4428.287989
4436.328221
4408.617357
4422.182053
4440.064404
4455.795466
4442.252354
4455.255088
4428.531161
4373.059901
4384.805908
4465.003201
4431.429835
4387.016880
4426.759715
4443.842253
4428.007881
4429.740380
4437.301993
4433.905355
4428.257925
4432.487688
4448.768986
4424.493907
4406.268889
4428.371953
4427.474754
4442.547267
4418.055203
4430.620898
4394.026295
4405.833939
4434.498503
4453.682901
4449.356910
4393.098286
4412.157203
4437.229940
4400.500145
4457.476769
4399.133813
4455.458348
4445.706880
4422.953766
4454.880180
4441.751160
4410.565370
4411.687759
4430.692751
4422.674707
4408.259520
4442.182786
4433.065308
4440.609413
4434.457222
4421.713184
4441.474376
4430.507527
4432.175373
4428.997441
4436.288620
4454.514719
4406.347273
4445.827293
4410.485926
4465.209341
4436.210670
4417.297297
4416.437086
4440.086920
4459.810221
4407.838570
4410.714142
4451.132853
4439.999917
4417.983312
4424.248719
4379.845776
4442.170117
4434.506236
4431.319091
4417.788867
4423.247210
4434.234327
4409.680027
4431.699011
4440.504605
4432.747963
4450.241804
4423.225669
4462.087237
4427.594219
4427.350928
4442.895797
4406.913646
4432.231387
4433.326080
4426.343500
4460.387880
4449.630297
4440.795443
4448.504281
4432.484869
4403.750873
4456.162287
4448.140265
4435.432051
4462.780502
4453.157415
4423.545046
4432.397968
4438.650894
4419.906708
4416.165841
4447.433704
4419.645223
4437.591005
4446.839023
4410.682456
4385.647739
4396.892673
4431.643955
4515.733001
4407.196276
4435.138218
4424.307786
4387.500872
4460.220591
4441.254220
4375.396946
4461.947700
4432.916300
4419.581695
4416.903371
4455.575314
4442.643156
4376.701675
4396.366147
4439.541351
4456.612764
4390.694371
4422.841391
4412.084876
4424.697146
4445.493758
4435.753032
4444.758399
4414.045398
4437.482980
4455.837113
4407.256489
4448.353258
4468.487565
4361.103555
4416.572082
4413.824384
4433.981698
4429.829982
4416.365252
4400.003263
4467.378087
4412.730106
4399.370712
4407.641911
4431.250911
4397.124363
4443.786727
4437.289594
4459.131071
4416.903354
4460.465463
4414.303897
4422.246918
4440.111649
4439.727930
4423.403262
4424.774859
4417.598938
4415.034578
4388.209590
4418.640020
4439.657848
4410.762202
4403.612310
4439.997749
4395.534823
4442.101573
4435.461174
4423.697309
4427.264614
4412.860610
4375.973363
4395.654017
4421.428120
4442.946477
4463.963173
4448.343347
4449.880339
4458.829807
4397.585323
4423.565291
4450.785900
4425.921360
4404.396106
4409.329572
4419.217654
4435.662562
4433.964611
4440.235358
4426.369124
4423.601569
4444.262844
4441.301892
4423.414925
4412.396594
4425.999798
4467.189138
4428.968902
4411.544034
4441.241679
4412.457336
4431.303681
4421.210138
4385.638969
4427.023112
4389.332740
4452.649642
4397.262560
4398.059994
4462.040642
4462.269895
4442.839438
4415.478983
4454.216681
4431.214777
4430.221949
4445.030834
4441.036592
4421.299363
4427.489121
4422.353832
4429.982505
4441.995783
4435.482872
4439.588955
4436.105999
4419.859310
4435.997129
4384.339332
4432.364088
4438.490239
4451.462657
4433.189782
4444.693761
4422.363868
4463.070884
4446.606198
4458.759226
4449.816850
4454.726019
4404.414791
4411.486290
4416.741372
4430.751970
4460.636683
4405.825788
4436.631122
4407.348192
4427.733954
4395.958649
4446.147999
4434.914400
4438.484320
4427.544976
4403.424664
4406.516607
4421.667473
4424.246476
4455.899657
4434.652274
4442.425760
4404.971646
4389.766697
4446.691129
4428.296002
4427.308919
4432.086600
4448.939072
4445.387868
4420.219706
4407.691577
4416.825851
4383.557385
4404.311005
4420.738941
4426.758233
4420.357673
4443.121630
4426.658448
4443.638310
4434.668329
4436.057369
4426.602309
4423.099683
4433.412405
4431.477140
4435.079409
4454.531322
4433.199607
4404.236026
4416.161734
4445.646506
4443.266748
4394.992720
4406.749917
4432.034664
4421.366931
4421.672893
4429.918497
4432.492601
4470.721275
4443.596667
4405.940025
4436.790440
4420.191121
4441.456443
4411.991234
4425.012880
4429.290541
4385.863912
4406.893720
4438.373265
4398.598049
4439.595997
4421.730590
4448.857227
4446.491090
4431.736883
4410.393180
4423.245335
4453.537674
4420.291418
4427.643221
4450.573768
4385.489149
4485.098335
4439.800898
4456.035614
4430.898991
4430.766076
4442.147031
4432.296416
4467.752521
4407.713906
4484.720122
4494.826455
4443.419567
4437.122595
4414.638895
4432.119343
4412.534293
4433.374677
4422.602095
4444.544431
4447.889945
4438.707461
4422.904925
4432.730703
4409.113326
4416.475700
4440.915552
4415.995193
4448.624839
4447.949962
4444.202021
4454.037568
4442.490713
4430.423350
4388.840647
4425.072418
4414.119382
4428.751572
4430.780424
4442.949192
4418.776094
4440.309135
4426.840967
4451.522963
4443.770122
4453.933233
4470.814368
4391.009858
4441.778808
4427.245310
4433.699968
4434.486674
4398.898188
4417.961827
4421.158964
4431.201244
4453.276498
4430.061018
4440.589985
4427.661328
4406.577490
4401.471150
4443.306480
4436.375891
4431.669985
4425.459971
4428.591672
4433.321937
4417.879946
4439.914064
4442.517107
4466.199249
4423.386049
4436.471054
4415.236370
4458.705585
4484.112274
4437.412797
4453.464156
4439.672417
4423.169683
4434.292767
4430.177289
4441.499975
4416.542801
4460.103036
4438.084846
4437.977078
4434.568854
4428.944776
4425.487780
4429.299984
4428.319559
4430.243052
4397.130983
4397.443194
4474.100544
4473.592718
4396.968567
4498.434518
4426.112354
4417.576171
4423.420664
4469.128274
4438.608169
4416.823846
4356.490096
4435.373818
4382.449458
4461.688975
4486.753609
4425.980931
4478.152786
4459.531464
4407.690335
4419.263371
4437.217972
4423.151614
4405.667622
4436.174068
4436.244146
4425.717882
4447.229450
4430.038320
4434.887515
4413.575331
4426.332580
4422.846909
4448.512595
4363.995301
4435.237014
4430.141215
4433.298190
4421.657901
4430.224315
4438.280359
4444.020877
4426.869058
4444.523454
4437.368297
4386.380269
4344.293545
4455.173211
4406.036754
4449.597760
4410.387818
4419.839805
4447.766090
4414.178410
4443.608283
4432.415892
4436.307768
4415.272032
4445.401936
4401.947875
4437.055880
4440.394354
4436.557108
4437.947768
4440.373333
4448.671714
4397.682722
4402.736056
4452.632090
4428.081465
4465.414636
4387.573585
4447.006615
4433.097036
4435.721027
4424.219300
4460.136329
4443.551975
4360.451289
4366.889489
4447.635507
4377.975254
4395.853949
4394.122020
4419.541648
4446.056828
4433.364926
4422.772040
4424.135092
4434.508178
4426.554523
4445.757631
4433.137034
4440.065358
4428.352702
4425.558281
4397.754475
4421.789969
4449.857544
4444.598351
4431.926273
4455.145982
4425.019283
4437.352434
4397.199233
4359.390570
4396.417014
4408.734767
4423.989825
4387.987907
4461.305658
4438.307006
4467.913716
4447.631413
4446.705372
4406.537661
4444.600674
4416.746893
4453.134008
4441.325622
4420.892122
4428.061841
4430.423757
4430.643503
4430.793056
4430.619570
4430.093091
4429.697781
4429.234115
4429.439951
4430.163094
4431.297549
4431.820883
4431.596489
4431.085587
4430.451695
4428.838445
4429.918918
4428.782005
4428.713080
4429.450949
4430.608585
4432.081699
4433.306307
4433.522198
4431.948331
4429.673687
4428.308228
4428.750120
4430.174951
4430.885999
4429.260526
4430.066662
4431.293312
4431.730956
4431.329903
4429.941824
4428.604523
4427.047597
4426.977704
4428.664816
4431.626328
4433.157988
4432.162476
4430.668445
4428.865986
4429.709863
4429.688261
4428.449487
4428.106352
4428.692767
4430.174858
4431.753063
4433.636095
4433.704268
4432.115208
4428.790618
4426.975368
4426.722234
4428.599562
4429.195541
4429.755246
4429.800787
4431.353916
4431.720094
4431.262762
4429.804183
4428.268069
4426.298008
4426.332326
4427.706085
4431.199864
4432.660104
4432.649142
4429.321465
4430.320228
4429.687554
4429.432735
4428.595670
4427.378285
4428.914470
4429.361380
4431.948487
4432.800102
4434.035883
4431.003098
4429.238626
4425.595691
4427.649342
4427.838047
4429.573351
4429.723251
4429.616510
4431.373720
4431.531619
4431.153628
4429.515995
4428.023550
4425.942125
4425.986141
4427.444055
4430.472412
4432.698656
4431.400568
4428.169487
4427.972202
4429.509833
4429.436941
4428.353226
4427.476378
4428.310426
4429.618603
4431.192503
4433.066034
4433.244338
4431.306749
4428.507749
4425.584738
4426.617158
4427.761189
4428.734297
4429.080513
4429.818676
4430.847888
4431.513275
4431.065745
4429.164495
4427.980177
4425.537126
4426.000706
4426.915241
4430.510112
4432.615323
4432.206110
4429.785594
4429.321130
4429.364493
4429.337439
4428.212781
4427.324216
4428.096626
4429.453170
4430.936584
4432.802219
4432.999775
4431.068411
4428.567982
4425.349537
4427.497992
4428.496759
4430.451414
4429.140931
4429.634906
4430.840001
4431.466221
4430.626563
4429.320297
4427.240146
4425.862020
4425.562498
4426.919945
4429.925734
4432.979606
4430.857569
4429.062368
4426.183839
4429.169740
4429.364062
4427.936714
4427.129686
4427.898461
4429.092326
4430.878481
4432.464414
4432.887645
4430.994711
4428.263899
4425.204218
4426.761910
4427.954229
4428.190877
4428.898535
4429.408044
4430.729197
4431.278022
4430.444176
4429.073000
4427.192428
4425.560626
4425.790403
4426.429940
4430.031134
4432.977111
4431.940851
4428.899287
4430.921518
4448.865792
4442.933363
4404.898516
4461.275118
4435.523441
4449.196961
4427.386510
4416.041229
4389.887151
4460.352608
4459.120899
4414.823686
4442.885780
4470.265123
4430.341141
4413.739683
4428.899992
4429.139237
4428.021120
4426.536211
4428.000974
4428.678688
4430.736908
4432.325891
4432.365741
4431.053486
4428.221007
4424.959217
4427.990863
4429.212184
4431.014265
4432.193708
4424.339186
4423.163147
4407.721309
4457.378352
4440.251513
4435.657251
4444.666812
4404.194665
4416.169758
4420.317947
4436.467338
4426.635250
4389.476419
4467.918144
4404.663636
4428.492757
4429.286114
4430.480734
4431.097734
4430.345986
4428.681821
4427.325782
4425.103867
4426.168097
4425.805176
4429.851051
4432.888129
4431.210402
4429.529403
4428.556448
4442.433580
4410.640744
4436.245662
4437.512633
4416.999098
4450.726370
4411.474607
4429.361003
4401.451582
4436.678374
4435.204903
4433.431626
4422.370041
4456.050960
4424.063144
4419.679734
4428.701648
4429.231201
4427.605101
4426.706124
4427.342623
4429.100742
4429.955023
4432.553606
4431.413164
4431.147104
4427.864486
4424.454040
4427.171410
4426.979116
4430.433995
4433.789636
4424.892996
4429.920197
4385.658868
4379.750891
4451.079634
4434.172700
4426.937406
4442.278550
4444.843698
4428.369150
4437.491700
4390.114496
4412.266630
4434.498167
4450.796604
4428.296825
4429.416591
4430.035337
4431.162494
4430.118998
4428.678901
4426.972555
4425.332086
4425.619233
4425.787363
4428.799793
4432.968356
4429.942060
4427.977434
4427.538554
4453.917186
4422.444185
4458.972595
4441.290411
4439.426844
4438.702255
4436.749311
4460.328003
4433.053195
4422.814945
4389.361114
4426.463692
4442.554656
4411.045520
4436.224078
4421.264949
4428.252700
4429.134274
4427.438275
4426.711428
4426.978273
4429.262908
4429.576108
4432.398515
4431.097307
4430.641682
4427.848966
4424.052606
4426.339457
4427.665293
4425.144143
4437.046337
4418.956216
4429.702365
4411.439413
4472.040382
4393.203243
4432.146975
4450.098533
4435.991285
4410.112152
4403.791302
4425.723573
4406.662055
4418.862273
4450.796852
4420.018190
4428.312060
4429.463972
4429.727802
4431.269429
4429.789294
4428.819260
4426.490339
4425.691897
4425.389835
4425.892236
4428.026679
4433.255952
4428.766571
4428.796629
4428.232525
4430.335325
4449.172724
4456.590730
4430.003720
4355.271915
4437.665686
4435.933134
4429.153023
4415.807573
4432.976320
4441.018194
4463.345131
4453.767057
4425.534564
4484.224716
4418.268896
4427.996860
4429.018915
4427.312497
4426.476009
4426.861500
4428.868530
4429.484847
4432.252534
4430.764917
4430.828814
4427.677921
4424.286416
4426.921409
4427.045056
4426.216317
4418.502318
4405.261342
4379.014379
4385.495252
4393.984644
4484.521331
4423.629730
4426.122928
4416.676514
4420.647659
4437.555194
4399.134063
4471.217542
4382.506021
4426.564276
4423.154125
4428.098032
4429.091519
4429.880468
4430.767583
4429.962638
4428.270173
4426.733346
4425.398399
4426.356739
4425.014482
4428.699498
4432.764073
4429.898086
4428.657409
4426.996613
4433.891638
4428.799637
4397.282035
4404.983330
4436.422824
4435.856210
4426.670928
4424.343631
4484.168180
4446.748324
4426.973227
4409.779517
4462.787571
4446.995125
4413.164935
4400.848352
4427.983267
4428.670836
4427.484154
4426.061026
4427.010659
4428.238962
4429.740417
4431.701808
4431.049642
4430.461607
4427.762860
4424.292891
4426.955697
4426.160595
4428.187623
4450.059395
4427.156199
4424.934146
4467.009915
4375.757743
4415.954897
4426.756424
4432.021867
4389.349863
4442.644691
4452.314600
4440.893212
4404.493292
4425.983242
4417.069759
4443.512236
4427.892225
4428.963966
4429.709008
4430.585362
4429.966871
4428.054356
4426.635490
4425.816252
4426.312979
4424.935601
4428.153100
4432.741188
4430.166880
4428.555124
4426.913332
4424.557271
4445.210375
4417.788391
4453.477445
4457.338226
4433.400526
4444.288729
4480.167587
4391.293141
4461.303234
4414.714531
4435.669075
4462.407295
4404.596966
4463.838298
4409.586180
4427.826633
4428.779702
4427.156263
4426.488601
4426.239713
4428.771672
4429.037532
4431.737849
4430.735090
4430.300133
4427.228859
4424.169686
4425.035526
4426.495972
4424.097929
4438.635122
4484.148311
4447.397344
4382.183004
4441.630682
4429.373927
4425.387872
4428.877532
4482.084848
4442.198277
4450.057118
4427.578180
4409.980536
4414.639615
4422.768482
4429.877495
4427.666558
4429.240317
4429.088741
4430.856005
4429.987610
4427.964845
4426.580622
4426.355021
4425.872902
4425.106616
4427.145419
4432.584143
4428.455739
4427.525261
4425.318754
4424.342404
4423.690944
4427.039924
4430.920769
4414.059743
4445.098995
4439.495817
4434.310402
4459.173802
4447.597686
4450.360481
4417.897435
4432.977025
4418.795279
4472.956355
4441.631602
4427.520182
4428.951317
4426.963376
4426.741748
4425.862804
4429.222981
4428.511759
4431.977964
4430.126275
4430.338614
4426.927375
4424.203232
4425.230248
4425.403071
4426.670883
4403.813397
4442.427281
4396.881287
4427.568765
4447.457149
4431.373147
4430.858227
4440.197277
4393.979170
4463.222259
4431.251140
4438.636318
4413.714864
4387.814776
4400.059550
4446.908253
4427.461879
4429.419188
4428.721314
4431.326284
4429.450447
4428.264543
4426.128006
4426.886389
4425.827530
4425.247276
4426.858929
4432.179062
4428.651965
4427.710761
4425.044610
4435.768139
4423.619854
4404.720456
4450.721487
4386.296780
4427.615747
4422.674996
4443.677747
4429.406541
4425.369598
4447.883399
4391.989432
4449.524374
4471.592443
4414.808136
4400.494722
4427.688902
4428.789625
4427.266556
4426.295180
4426.373899
4428.318105
4428.893266
4432.049048
4429.974840
4430.437869
4427.204824
4424.798548
4424.658541
4425.649284
4424.161400
4427.662066
4422.258826
4428.343221
4410.738978
4405.694860
4442.981197
4426.107246
4432.130328
4425.640438
4446.684678
4455.728126
4444.129090
4470.141487
4400.571725
4441.003156
4430.995101
4427.683168
4428.948553
4429.321092
4430.828600
4429.556183
4428.100301
4426.524290
4426.676461
4426.989843
4425.071232
4426.570251
4432.382377
4429.651748
4427.247954
4426.346238
4424.799694
4415.677316
4438.197279
4438.990615
4392.869028
4429.205052
4443.977064
4418.927126
4450.979736
4409.390895
4468.406514
4387.126577
4450.796853
4448.903561
4409.274762
4416.676726
4428.020465
4428.844804
4427.337691
4426.364352
4426.241166
4427.997408
4429.203943
4431.672356
4430.418853
4429.827606
4428.006670
4424.224804
4425.534883
4424.966954
4425.338521
4441.407443
4451.624922
4447.957930
4457.421791
4388.606110
4416.347953
4441.847129
4367.537917
4476.126910
4436.832866
4438.850676
4422.680556
4453.322039
4466.087889
4402.225205
4418.004136
4427.774956
4428.655033
4429.463680
4430.280216
4430.409800
4427.184126
4427.421314
4426.406995
4427.665255
4424.396033
4426.709213
4432.752776
4428.586065
4426.435443
4426.161262
4441.680168
4419.168077
4424.466055
4461.989179
4390.091635
4435.582810
4437.253080
4425.603288
4467.386864
4482.389258
4470.240848
4420.154746
4381.141833
4463.721561
4368.850019
4421.373209
4427.836013
4429.222291
4427.217948
4426.904440
4425.484918
4429.265381
4428.509178
4431.864934
4430.852123
4430.485400
4427.033332
4425.026933
4424.346630
4424.000909
4424.817126
4426.301966
4436.358335
4411.565310
4382.446347
4422.017171
4445.114131
4442.763533
4421.637412
4379.160042
4458.084460
4399.896626
4441.978162
4437.460899
4399.370580
4411.956337
4445.468768
4427.650830
4429.386083
4428.191647
4431.739001
4429.978893
4428.320619
4427.034991
4428.559671
4426.264864
4424.753192
4427.568481
4431.309351
4428.176535
4427.686144
4424.688874
4426.693620
4423.831363
4426.736329
4434.808993
4455.209678
4422.432810
4428.326262
4480.842833
4441.061102
4412.498780
4436.246573
4396.236185
4481.995928
4402.043194
4565.303391
4411.714956
4427.802363
4429.083195
4427.964754
4426.591023
4426.295057
4428.877900
4428.324605
4432.425001
4430.513530
4429.898448
4426.963047
4426.544831
4424.619859
4425.676730
4422.259992
4427.775351
4417.995529
4436.699594
4431.639155
4465.310365
4466.474476
4437.413992
4444.065545
4492.647915
4428.578386
4436.799225
4444.987165
4439.069739
4442.689305
4276.208336
4426.872367
4428.127536
4429.592190
4428.370847
4431.841231
4429.486380
4428.492772
4426.126987
4428.953757
4425.395312
4426.165596
4427.114492
4430.692240
4427.597578
4426.971385
4423.349699
4421.615332
4410.132652
4391.172325
4403.831639
4449.682222
4412.781048
4438.868299
4438.169892
4453.214796
4400.398972
4403.535077
4435.575971
4442.035926
4436.760716
4383.825926
4404.427372