# vtk DataFile Version 2.0
mfree iwf
ASCII

DATASET UNSTRUCTURED_GRID
POINTS 11193 float
0.000000 0.000445 0.000000
0.000000 0.000450 0.000000
0.000000 0.000455 0.000000
0.000000 0.000460 0.000000
0.000000 0.000465 0.000000
0.000000 0.000470 0.000000
0.000000 0.000475 0.000000
-0.000000 0.000480 0.000000
0.000000 0.000485 0.000000
0.000000 0.000490 0.000000
-0.000000 0.000496 0.000000
0.000002 0.000500 0.000000
0.000941 0.000958 0.000000
0.000949 0.000958 0.000000
0.000996 0.000950 0.000000
0.001001 0.000948 0.000000
0.001001 0.000948 0.000000
0.001008 0.000946 0.000000
0.001015 0.000943 0.000000
0.001010 0.000945 0.000000
0.001024 0.000941 0.000000
0.001050 0.000933 0.000000
0.001056 0.000929 0.000000
0.001059 0.000926 0.000000
0.001063 0.000923 0.000000
0.001067 0.000920 0.000000
0.001071 0.000917 0.000000
0.001075 0.000913 0.000000
0.001077 0.000911 0.000000
0.001083 0.000906 0.000000
0.001087 0.000903 0.000000
0.001108 0.000892 0.000000
0.000005 0.000445 0.000000
0.000005 0.000450 0.000000
0.000005 0.000455 0.000000
0.000005 0.000460 0.000000
0.000005 0.000465 0.000000
0.000005 0.000470 0.000000
0.000005 0.000475 0.000000
0.000005 0.000480 0.000000
0.000005 0.000485 0.000000
0.000006 0.000490 0.000000
0.000003 0.000496 0.000000
0.000006 0.000499 0.000000
0.000991 0.000950 0.000000
0.000997 0.000941 0.000000
0.001030 0.000937 0.000000
0.001037 0.000935 0.000000
0.001042 0.000933 0.000000
0.001045 0.000931 0.000000
0.001047 0.000930 0.000000
0.001051 0.000926 0.000000
0.001053 0.000924 0.000000
0.001059 0.000920 0.000000
0.001065 0.000916 0.000000
0.001070 0.000911 0.000000
0.001073 0.000907 0.000000
0.001082 0.000902 0.000000
0.001084 0.000899 0.000000
0.001089 0.000896 0.000000
0.001100 0.000893 0.000000
0.001102 0.000892 0.000000
0.001097 0.000895 0.000000
0.001106 0.000891 0.000000
0.000010 0.000445 0.000000
0.000010 0.000450 0.000000
0.000010 0.000455 0.000000
0.000010 0.000460 0.000000
0.000010 0.000465 0.000000
0.000010 0.000469 0.000000
0.000010 0.000475 0.000000
0.000010 0.000479 0.000000
0.000009 0.000486 0.000000
0.000012 0.000489 0.000000
0.000009 0.000497 0.000000
0.000011 0.000498 0.000000
0.000991 0.000946 0.000000
0.001000 0.000939 0.000000
0.001016 0.000939 0.000000
0.001023 0.000938 0.000000
0.001028 0.000936 0.000000
0.001033 0.000935 0.000000
0.001024 0.000931 0.000000
0.001033 0.000928 0.000000
0.001038 0.000927 0.000000
0.001044 0.000924 0.000000
0.001054 0.000919 0.000000
0.001058 0.000917 0.000000
0.001058 0.000911 0.000000
0.001064 0.000908 0.000000
0.001068 0.000908 0.000000
0.001078 0.000902 0.000000
0.001092 0.000894 0.000000
0.001094 0.000893 0.000000
0.001100 0.000887 0.000000
0.001102 0.000882 0.000000
0.000015 0.000445 0.000000
0.000016 0.000450 0.000000
0.000014 0.000456 0.000000
0.000017 0.000460 0.000000
0.000014 0.000469 0.000000
0.000016 0.000464 0.000000
0.000014 0.000476 0.000000
0.000016 0.000480 0.000000
0.000014 0.000485 0.000000
0.000016 0.000489 0.000000
0.000014 0.000495 0.000000
0.000016 0.000497 0.000000
0.000025 0.000500 0.000000
0.001003 0.000940 0.000000
0.001018 0.000937 0.000000
0.001014 0.000933 0.000000
0.001029 0.000930 0.000000
0.001037 0.000933 0.000000
0.001041 0.000924 0.000000
0.001047 0.000920 0.000000
0.001042 0.000917 0.000000
0.001050 0.000917 0.000000
0.001060 0.000904 0.000000
0.001063 0.000913 0.000000
0.001070 0.000901 0.000000
0.001074 0.000902 0.000000
0.001075 0.000897 0.000000
0.001080 0.000896 0.000000
0.001084 0.000892 0.000000
0.001089 0.000890 0.000000
0.001092 0.000886 0.000000
0.001100 0.000879 0.000000
0.000019 0.000445 0.000000
0.000021 0.000450 0.000000
0.000018 0.000455 0.000000
0.000022 0.000459 0.000000
0.000019 0.000469 0.000000
0.000024 0.000467 0.000000
0.000018 0.000474 0.000000
0.000022 0.000478 0.000000
0.000019 0.000486 0.000000
0.000021 0.000490 0.000000
0.000021 0.000497 0.000000
0.000022 0.000499 0.000000
0.000039 0.000500 0.000000
0.001001 0.000929 0.000000
0.001007 0.000935 0.000000
0.001015 0.000928 0.000000
0.001021 0.000934 0.000000
0.001032 0.000924 0.000000
0.001031 0.000920 0.000000
0.001046 0.000915 0.000000
0.001036 0.000918 0.000000
0.001048 0.000909 0.000000
0.001050 0.000901 0.000000
0.001054 0.000899 0.000000
0.001061 0.000898 0.000000
0.001070 0.000895 0.000000
0.001076 0.000887 0.000000
0.001082 0.000888 0.000000
0.001085 0.000885 0.000000
0.001094 0.000881 0.000000
0.001096 0.000884 0.000000
0.001097 0.000876 0.000000
0.000024 0.000445 0.000000
0.000026 0.000450 0.000000
0.000024 0.000455 0.000000
0.000026 0.000461 0.000000
0.000021 0.000465 0.000000
0.000025 0.000472 0.000000
0.000023 0.000477 0.000000
0.000027 0.000481 0.000000
0.000023 0.000485 0.000000
0.000026 0.000488 0.000000
0.000026 0.000493 0.000000
0.000027 0.000500 0.000000
0.000970 0.000955 0.000000
0.001006 0.000938 0.000000
0.001011 0.000938 0.000000
0.001026 0.000926 0.000000
0.001020 0.000922 0.000000
0.001038 0.000922 0.000000
0.001038 0.000913 0.000000
0.001028 0.000918 0.000000
0.001037 0.000909 0.000000
0.001054 0.000912 0.000000
0.001053 0.000909 0.000000
0.001055 0.000906 0.000000
0.001065 0.000903 0.000000
0.001066 0.000898 0.000000
0.001079 0.000891 0.000000
0.001074 0.000892 0.000000
0.001089 0.000882 0.000000
0.001081 0.000882 0.000000
0.001091 0.000877 0.000000
0.001094 0.000872 0.000000
0.000030 0.000445 0.000000
0.000031 0.000450 0.000000
0.000029 0.000455 0.000000
0.000031 0.000460 0.000000
0.000031 0.000464 0.000000
0.000028 0.000469 0.000000
0.000032 0.000472 0.000000
0.000030 0.000477 0.000000
0.000030 0.000486 0.000000
0.000031 0.000492 0.000000
0.000033 0.000497 0.000000
0.000030 0.000499 0.000000
0.000049 0.000500 0.000000
0.000996 0.000935 0.000000
0.001010 0.000926 0.000000
0.001020 0.000927 0.000000
0.001016 0.000923 0.000000
0.001024 0.000922 0.000000
0.001031 0.000911 0.000000
0.001044 0.000904 0.000000
0.001043 0.000911 0.000000
0.001047 0.000904 0.000000
0.001057 0.000902 0.000000
0.001061 0.000890 0.000000
0.001063 0.000894 0.000000
0.001067 0.000890 0.000000
0.001072 0.000883 0.000000
0.001071 0.000888 0.000000
0.001079 0.000878 0.000000
0.001085 0.000878 0.000000
0.001089 0.000874 0.000000
0.001092 0.000868 0.000000
0.000035 0.000445 0.000000
0.000035 0.000450 0.000000
0.000034 0.000456 0.000000
0.000038 0.000454 0.000000
0.000034 0.000467 0.000000
0.000037 0.000472 0.000000
0.000032 0.000479 0.000000
0.000042 0.000478 0.000000
0.000035 0.000484 0.000000
0.000034 0.000488 0.000000
0.000037 0.000491 0.000000
0.000036 0.000498 0.000000
0.000928 0.000956 0.000000
0.000966 0.000956 0.000000
0.001005 0.000929 0.000000
0.001011 0.000920 0.000000
0.001025 0.000914 0.000000
0.001017 0.000911 0.000000
0.001033 0.000914 0.000000
0.001032 0.000906 0.000000
0.001040 0.000907 0.000000
0.001036 0.000898 0.000000
0.001043 0.000891 0.000000
0.001053 0.000889 0.000000
0.001057 0.000892 0.000000
0.001062 0.000885 0.000000
0.001076 0.000881 0.000000
0.001069 0.000870 0.000000
0.001080 0.000873 0.000000
0.001083 0.000872 0.000000
0.001087 0.000869 0.000000
0.001088 0.000864 0.000000
0.000040 0.000445 0.000000
0.000041 0.000450 0.000000
0.000036 0.000461 0.000000
0.000040 0.000458 0.000000
0.000042 0.000463 0.000000
0.000040 0.000468 0.000000
0.000041 0.000473 0.000000
0.000037 0.000477 0.000000
0.000041 0.000488 0.000000
0.000042 0.000491 0.000000
0.000041 0.000497 0.000000
0.000044 0.000498 0.000000
0.000787 0.000888 0.000000
0.000992 0.000942 0.000000
0.000996 0.000931 0.000000
0.001007 0.000915 0.000000
0.001021 0.000917 0.000000
0.001027 0.000909 0.000000
0.001022 0.000911 0.000000
0.001038 0.000902 0.000000
0.001045 0.000898 0.000000
0.001048 0.000895 0.000000
0.001041 0.000897 0.000000
0.001048 0.000886 0.000000
0.001058 0.000884 0.000000
0.001064 0.000879 0.000000
0.001066 0.000885 0.000000
0.001068 0.000879 0.000000
0.001073 0.000877 0.000000
0.001077 0.000869 0.000000
0.001083 0.000866 0.000000
0.001085 0.000860 0.000000
0.000044 0.000445 0.000000
0.000046 0.000450 0.000000
0.000044 0.000455 0.000000
0.000046 0.000460 0.000000
0.000044 0.000467 0.000000
0.000046 0.000473 0.000000
0.000046 0.000479 0.000000
0.000039 0.000483 0.000000
0.000051 0.000485 0.000000
0.000045 0.000484 0.000000
0.000048 0.000493 0.000000
0.000050 0.000498 0.000000
0.000792 0.000893 0.000000
0.000987 0.000950 0.000000
0.001010 0.000930 0.000000
0.001016 0.000917 0.000000
0.001013 0.000914 0.000000
0.001026 0.000904 0.000000
0.001029 0.000899 0.000000
0.001032 0.000902 0.000000
0.001038 0.000892 0.000000
0.001047 0.000891 0.000000
0.001054 0.000894 0.000000
0.001057 0.000879 0.000000
0.001051 0.000881 0.000000
0.001060 0.000877 0.000000
0.001067 0.000875 0.000000
0.001073 0.000872 0.000000
0.001071 0.000867 0.000000
0.001077 0.000865 0.000000
0.001080 0.000862 0.000000
0.001082 0.000856 0.000000
0.000049 0.000445 0.000000
0.000052 0.000450 0.000000
0.000049 0.000454 0.000000
0.000054 0.000455 0.000000
0.000048 0.000464 0.000000
0.000050 0.000472 0.000000
0.000052 0.000467 0.000000
0.000050 0.000477 0.000000
0.000047 0.000488 0.000000
0.000052 0.000491 0.000000
0.000057 0.000492 0.000000
0.000053 0.000498 0.000000
0.000872 0.000942 0.000000
0.000979 0.000946 0.000000
0.000991 0.000937 0.000000
0.001007 0.000919 0.000000
0.001014 0.000908 0.000000
0.001021 0.000906 0.000000
0.001017 0.000902 0.000000
0.001023 0.000901 0.000000
0.001032 0.000891 0.000000
0.001033 0.000895 0.000000
0.001035 0.000888 0.000000
0.001046 0.000884 0.000000
0.001051 0.000876 0.000000
0.001054 0.000885 0.000000
0.001059 0.000870 0.000000
0.001063 0.000866 0.000000
0.001064 0.000871 0.000000
0.001073 0.000861 0.000000
0.001077 0.000858 0.000000
0.001079 0.000853 0.000000
0.000054 0.000445 0.000000
0.000057 0.000450 0.000000
0.000052 0.000459 0.000000
0.000052 0.000463 0.000000
0.000059 0.000467 0.000000
0.000053 0.000473 0.000000
0.000057 0.000476 0.000000
0.000057 0.000481 0.000000
0.000052 0.000482 0.000000
0.000056 0.000487 0.000000
0.000056 0.000497 0.000000
0.000059 0.000496 0.000000
0.000894 0.000949 0.000000
0.000986 0.000952 0.000000
0.000983 0.000945 0.000000
[...]
POINT_DATA 11193
SCALARS density float 1
LOOKUP_TABLE default
4427.572382
4431.604040
4429.025952
4430.327071
4432.857780
4425.052693
4434.653757
4429.168806
4429.471372
4417.017365
4429.601542
4405.304026
4426.318267
4420.866561
4417.424304
4438.410268
4439.746838
4437.532793
4448.632332
4447.083420
4424.365064
4438.594290
4398.883399
4436.941861
4434.415749
4420.785281
4453.053261
4429.845276
4414.819102
4448.136008
4422.812123
4401.474121
4430.028889
4428.041156
4426.128836
4421.815167
4433.205619
4422.035198
4427.140039
4422.170215
4425.752689
4432.695968
4451.616958
4408.839264
4412.242912
4422.360205
4412.636577
4405.835623
4424.705279
4418.033471
4440.173312
4449.289978
4452.679370
4429.311066
4392.458065
4388.140891
4447.356102
4401.967956
4433.515062
4462.144060
4424.366301
4431.792305
4405.598721
4401.388334
4422.080740
4427.008954
4436.449460
4425.609734
4432.221826
4423.326727
4453.856793
4397.655630
4460.143140
4391.116106
4446.945401
4398.643361
4454.865026
4456.479707
4431.347717
4402.097878
4424.516759
4405.432301
4443.464343
4446.465533
4428.697164
4403.442735
4413.978724
4424.472894
4396.563508
4451.813337
4433.108566
4403.701809
4424.141813
4423.460604
4452.630122
4418.174457
4423.641728
4435.082886
4435.427488
4419.789143
4411.798069
4432.053856
4452.968065
4385.780864
4473.345590
4382.881645
4503.581118
4408.512023
4434.728146
4380.819349
4421.639739
4442.981097
4485.918534
4448.732350
4438.403874
4399.864307
4410.932195
4419.862963
4407.537258
4474.400000
4417.383686
4449.795612
4438.763874
4461.550325
4433.736986
4363.782030
4503.206341
4445.911965
4436.511864
4432.343431
4441.069913
4439.231063
4426.950233
4455.998545
4430.736182
4447.377539
4468.318639
4372.171244
4465.549734
4434.146168
4417.241838
4433.574700
4474.097191
4424.707399
4474.884312
4376.660214
4462.082205
4449.745061
4440.352458
4379.071157
4409.723585
4417.351926
4407.882673
4408.636204
4406.279979
4459.314676
4453.987094
4370.969696
4394.281885
4419.965345
4432.368025
4434.503273
4440.213656
4405.681832
4436.267646
4407.868620
4468.005342
4365.488236
4433.094305
4471.656705
4418.678308
4423.429023
4433.758217
4426.629697
4386.822095
4387.440658
4452.116742
4437.876601
4425.671917
4407.508176
4457.383760
4458.292138
4446.328096
4439.225675
4446.381212
4453.297787
4399.240885
4426.310277
4422.745276
4425.627455
4504.607420
4409.640853
4426.120406
4429.262106
4418.662386
4449.071236
4444.020104
4427.589385
4403.598670
4448.688196
4438.643578
4405.813486
4455.941595
4418.791564
4424.712825
4440.697738
4459.477599
4400.154878
4424.828667
4478.934248
4411.886154
4430.114760
4439.983575
4465.768400
4460.615030
4443.708800
4448.256333
4410.811986
4410.088664
4460.114957
4437.193005
4381.450233
4409.682036
4441.359962
4429.575795
4422.702565
4436.652418
4430.978144
4432.884179
4425.242448
4446.970928
4433.835483
4416.057807
4432.818311
4419.604868
4445.520181
4419.807539
4424.366331
4392.430113
4400.076600
4439.884642
4442.221802
4422.579794
4424.388292
4444.454837
4478.841949
4404.107176
4428.218439
4399.912998
4436.027613
4449.442728
4446.941623
4446.730926
4458.835860
4412.684419
4416.983391
4432.831314
4437.062606
4403.928281
4448.765300
4442.822717
4429.443136
4444.676853
4418.226863
4444.178206
4430.361871
4430.562586
4422.844429
4424.165084
4459.612941
4409.334791
4415.076198
4399.100533
4439.935995
4447.094428
4399.842172
4433.723696
4446.285860
4419.946502
4418.416557
4428.253654
4412.129455
4413.253846
4442.512121
4400.201911
4401.177623
4417.790908
4435.267321
4434.125168
4420.803173
4423.780330
4407.730574
4405.411806
4426.997439
4431.210616
4425.576511
4454.002317
4430.397657
4475.182409
4428.506247
4434.697681
4438.991012
4393.433800
4441.311063
4431.245902
4410.195187
4414.529345
4449.485938
4451.122949
4432.247759
4442.580855
4436.270472
4410.903911
4443.046739
4450.956670
4443.543233
4429.597837
4442.077029
4438.246777
4424.569206
4425.018769
4427.146012
4442.644704
4425.704810
4436.942844
4457.033695
4417.760417
4385.865214
4390.999373
4422.562783
4535.749545
4405.992954
4436.676405
4431.168807
4391.168320
4453.985432
4420.900988
4405.052781
4457.927823
4438.852961
4419.859537
4407.722794
4444.034283
4439.799903
4421.912547
4453.308751
4452.602111
4442.881651
4379.230511
4412.337026
4423.619390
4430.443549
4439.956066
4420.848339
4442.165488
4420.463998
4438.748269
4460.927059
4415.707556
4461.988915
4453.859140
4365.305452
4406.587174
4414.303017
4434.402335
4433.558132
4421.563309
4427.359949
4446.814070
4435.882660
4410.179939
4460.588601
4427.535671
4398.373626
4443.261618
4424.727537
4427.679812
4434.424672
4456.097864
4422.041225
4436.135787
4445.556113
4429.193512
4425.983742
4428.644633
4439.101773
4401.642634
4398.663002
4445.973556
4420.903527
4417.788258
4423.302786
4443.203459
4386.610575
4451.088749
4441.141708
4421.632692
4435.127968
4422.397404
4378.226829
4403.912267
4406.967453
4436.025684
4432.447634
4421.555161
4445.823387
4426.208340
4439.148963
4401.328506
4438.640717
4393.808327
4440.160345
4399.505969
4430.054996
4434.184376
4431.848186
4440.007734
4411.803255
4444.995194
4420.562253
4435.155866
4434.674528
4448.301926
4379.292554
4454.794940
4410.495166
4418.677130
4433.931645
4413.107651
4434.685508
4404.096768
4400.258763
4438.831521
4399.821167
4441.756716
4404.088422
4435.497208
4417.785238
4460.638030
4442.896688
4405.378434
4449.291800
4439.696754
4439.752445
4443.621452
4439.212022
4418.128611
4433.159884
4407.146408
4445.890749
4426.724697
4437.900016
4443.916769
4422.646267
4430.347170
4437.192344
4390.754281
4409.316646
4453.438761
4456.323039
4425.525658
4437.717569
4438.507377
4461.651406
4458.009332
4447.916978
4444.468455
4459.701985
4395.761287
4429.203821
4410.223335
4436.521657
4465.827433
4413.106862
4429.523302
4399.788601
4431.526213
4393.962057
4439.893016
4427.342267
4439.392104
4411.319851
4423.044733
4441.014399
4433.268111
4397.306295
4432.454669
4465.474372
4454.235172
4390.613957
4394.546777
4443.031126
4424.311174
4415.681246
4429.827662
4439.641304
4444.320291
4423.005490
4398.227373
4426.020972
4384.623053
4413.428551
4449.909491
4443.670745
4392.946099
4415.623004
4442.977183
4416.405551
4453.360166
4422.826138
4440.028023
4418.942317
4419.196422
4437.436564
4423.875105
4432.995343
4381.519243
4434.791183
4402.826486
4422.053410
4436.055384
4462.531789
4413.218596
4432.253423
4432.795055
4434.382487
4435.619552
4435.751053
4475.462755
4432.688440
4418.203440
4449.749909
4426.956295
4445.400700
4440.169911
4425.907771
4427.415156
4434.508636
4421.405715
4443.345470
4417.565037
4434.889303
4425.698576
4441.811250
4444.920781
4442.531479
4427.453113
4429.934497
4460.390668
4454.848513
4439.857737
4431.824968
4434.708947
4416.309420
4442.804989
4446.911547
4431.370414
4436.433541
4440.023371
4438.394917
4465.265611
4417.957973
4485.073570
4486.253457
4429.321443
4443.740073
4446.223348
4395.318076
4448.665759
4431.320586
4434.121004
4418.798723
4466.754665
4425.454936
4433.991468
4422.764794
4419.304991
4449.106944
4408.453959
4432.748730
4431.433785
4436.587003
4427.462688
4443.600429
4451.532792
4404.432145
4419.177741
4432.156079
4420.049226
4418.597304
4424.389493
4439.592096
4424.462484
4438.997497
4430.081220
4429.133217
4456.867839
4435.631371
4404.752427
4404.074095
4430.811022
4412.687211
4412.957139
4449.860869
4395.678906
4401.653437
4432.511905
4434.344111
4444.360397
4423.662132
4450.088442
4439.163647
4396.023708
4424.710407
4444.160199
4436.868483
4427.636765
4394.894998
4427.440850
4428.346585
4426.637562
4437.476599
4439.207750
4447.021229
4440.412286
4441.801513
4429.541869
4443.923810
4482.967526
4424.981889
4446.602364
4435.721177
4371.647648
4445.895208
4426.688535
4448.007480
4446.080906
4459.336341
4422.107424
4438.866097
4414.149196
4439.968729
4437.480604
4408.090250
4418.475893
4433.487990
4422.848696
4425.122224
4462.446407
4475.464470
4392.362987
4509.389737
4424.077177
4441.198174
4428.478196
4471.893555
4440.172051
4430.557214
4357.770359
4438.432275
4410.902581
4447.671580
4472.223325
4462.142704
4461.746400
4433.363776
4405.688684
4442.452708
4422.030199
4414.177398
4407.589306
4426.991626
4422.970658
4415.860102
4430.253996
4419.267680
4432.312424
4442.704972
4418.499407
4429.683225
4445.945542
4377.511997
4435.747123
4434.340340
4425.442730
4423.263674
4435.955285
4429.842122
4453.494803
4402.633392
4442.192271
4431.641923
4402.785633
4356.478248
4450.206278
4400.003619
4435.945928
4431.760303
4454.177362
4416.609533
4443.646868
4435.217846
4449.663677
4432.563011
4438.144338
4420.069738
4445.915503
4419.256880
4413.282363
4442.511460
4419.901278
4410.884331
4428.533126
4387.154913
4373.072750
4470.244418
4426.353449
4456.704641
4418.103851
4430.285050
4442.116165
4439.216701
4436.882893
4455.637309
4448.370968
4385.431150
4364.177664
4446.868832
4373.072388
4388.219761
4421.128490
4430.072430
4454.077080
4408.707807
4413.131572
4416.225606
4432.240859
4417.228212
4460.584962
4427.509934
4445.231656
4429.122158
4409.774991
4436.004843
4464.398682
4458.114665
4435.918525
4430.251973
4439.125755
4401.621301
4434.579324
4410.220374
4362.664680
4429.966110
4405.684888
4428.831632
4388.705904
4443.809900
4438.416881
4470.098861
4458.581009
4462.150810
4416.121648
4421.899621
4444.942266
4406.166505
4459.910082
4420.861277
4426.810693
4430.174006
4430.133003
4430.221678
4430.025964
4429.599416
4429.376182
4429.048612
4429.402716
4430.027850
4430.980504
4431.395212
4431.298237
4430.886865
4430.360097
4427.803940
4429.632336
4428.772967
4429.189354
4429.997986
4431.089244
4432.318671
4433.277531
4433.383226
4431.940722
4430.337201
4429.226301
4429.378148
4430.531279
4431.098066
4428.591594
4429.775709
4430.425365
4430.611113
4430.085263
4428.877605
4427.945123
4426.659504
4426.945155
4428.479541
4430.808409
4431.937364
4431.399380
4430.445836
4428.773068
4428.931010
4429.354887
4428.569578
4428.607111
4429.537666
4430.783407
4432.185500
4433.665708
4433.543275
4432.028010
4429.377450
4428.035729
4427.731062
4428.846203
4429.461895
4429.314343
4429.720096
4430.467201
4430.701631
4429.865198
4428.814475
4427.451955
4425.976246
4426.204797
4427.508956
4430.377286
4431.177231
4431.588442
4428.838595
4429.571783
4429.183373
4429.355345
4428.463430
4428.326266
4429.461584
4430.324682
4432.154750
4433.128242
4433.571714
4431.283872
4429.237721
4426.956936
4427.754567
4427.861711
4429.241981
4429.456424
4429.482919
4430.731338
4430.413937
4429.849661
4428.604186
4427.162006
4425.752213
4425.706233
4427.269631
4429.663410
4431.125517
4429.975590
4427.922217
4426.867047
4429.106243
4429.099695
4428.579387
4428.016686
4429.393567
4430.032502
4431.979570
4432.822961
4433.388909
4430.979411
4429.051276
4426.585939
4427.583985
4427.084713
4428.941782
4428.914718
4429.610795
4430.440200
4430.196608
4430.022710
4428.032782
4427.505670
4425.008245
4426.076209
4426.526407
4429.964096
4430.850708
4431.601606
4428.834650
4430.320210
4428.976380
4429.206361
4428.153277
4428.258714
4428.783774
4430.356574
4431.126941
4433.242135
4432.613157
4431.233221
4428.812725
4426.536217
4428.038039
4428.634774
4427.827359
4428.981079
4429.775949
4430.040458
4430.676327
4429.090005
4428.691814
4426.435817
4425.674830
4425.179410
4427.162807
4428.760524
4431.963454
4429.141667
4429.488983
4428.412435
4428.727858
4429.168734
4427.915166
4427.945144
4428.713747
4429.910519
4431.040566
4432.968090
4432.617758
4431.123750
4428.561733
4426.752576
4427.404817
4428.124668
4429.030610
4428.772169
4429.342385
4430.289231
4430.194379
4429.285016
4428.097598
4426.894885
4425.054692
4425.741862
4426.309741
4429.591271
4430.967358
4432.161346
4429.752076
4431.463614
4433.011019
4437.920608
4435.671957
4439.188921
4421.015281
4451.895435
4431.513180
4398.432624
4409.244875
4446.190755
4459.135204
4402.911085
4427.133996
4445.273117
4425.521176
4428.896454
4428.547196
4428.759173
4428.104552
4427.145913
4429.040316
4429.212803
4431.211905
4432.405784
4432.785909
4430.430802
4428.899301
4426.321889
4428.166535
4429.296029
4432.453178
4432.429543
4435.080083
4418.605125
4402.085909
4414.897426
4440.075508
4431.489622
4404.494778
4393.943287
4414.619643
4426.389856
4438.231606
4431.303944
4383.901164
4433.680562
4409.853346
4428.415092
4429.160978
4430.237138
4429.965323
4429.238928
4427.736503
4427.053127
4424.783673
4425.720061
4425.940743
4428.928125
4430.693277
4430.921450
4428.977799
4430.353749
4450.145737
4438.453504
4419.478125
4418.680837
4413.975885
4450.015493
4423.963854
4427.596552
4395.915212
4433.591460
4438.671336
4420.870788
4432.528203
4432.043940
4443.084605
4428.777093
4428.355275
4428.853448
4427.566271
4427.340599
4428.231576
4429.641396
4430.170049
4432.861409
4431.595566
4430.760654
4427.725605
4425.568647
4426.503043
4426.581245
4429.504254
4438.374034
4415.533362
4409.301737
4382.442591
4396.544637
4450.265475
4428.592065
4443.215141
4444.838378
4450.671861
4431.765609
4432.537415
4378.944226
4403.591762
4450.713980
4451.985243
4428.118734
4429.320579
4429.855858
4430.009020
4429.043329
4427.670529
4426.870789
4424.729344
4425.497110
4425.370496
4428.193484
4430.120204
4428.889789
4426.506094
4424.761983
4448.596063
4409.917671
4453.917851
4455.920039
4437.838443
4433.866143
4440.395170
4441.075911
4401.392960
4432.371892
4389.614781
4430.798805
4422.938565
4424.703530
4431.192167
4421.075594
4427.915772
4428.770056
4427.327316
4427.248603
4427.936986
4429.624843
4429.824646
4432.686170
4431.293790
4430.529031
4427.176647
4424.865473
4425.929040
4425.733385
4424.505570
4424.045597
4395.052225
4414.620926
4397.482900
4481.458422
4388.849865
4432.154966
4439.974350
4435.615067
4400.509198
4397.379393
4424.691346
4420.501150
4417.593680
4444.025672
4419.910809
4428.240251
4429.287473
4429.796319
4430.153674
4428.763975
4427.934318
4426.367348
4425.161407
4425.099474
4425.343543
4427.497885
4430.274892
4427.259771
4426.790586
4425.942213
4451.299470
4419.349310
4469.923125
4393.368661
4359.178337
4439.950492
4432.411977
4432.304090
4454.384074
4435.318819
4418.791705
4465.681448
4445.068160
4421.855802
4477.299415
4406.801260
4427.794282
4428.605947
4427.287406
4426.826334
4427.942628
4429.110051
4429.844233
4432.321096
4431.565077
4430.188881
4427.396431
4424.518633
4426.306612
4426.070915
4423.767430
4442.716827
4429.834588
4431.362942
4460.933110
4393.357110
4477.816479
4417.135135
4425.930628
4423.612450
4395.827757
4449.396915
4391.337887
4466.138874
4384.255496
4425.113348
4428.044725
4428.020763
4428.970068
4430.007296
4429.899100
4428.916929
4427.489120
4426.801243
4424.901380
4425.822742
4424.817048
4428.028810
4430.479451
4429.024953
4427.325263
4429.218071
4411.998551
4411.664626
4420.696123
4415.840837
4441.025324
4436.415860
4422.858471
4423.563126
4358.431328
4430.324662
4405.119227
4401.673376
4458.254636
4451.838057
4422.004828
4392.247169
4427.797567
4428.338771
4427.466658
4426.194492
4428.076305
4428.600981
4429.840219
4432.170488
4431.418787
4430.428306
4427.236724
4424.691907
4427.459549
4426.716021
4428.908271
4443.268736
4408.905498
4430.415159
4447.828388
4374.703441
4420.022100
4431.321336
4442.387742
4433.645238
4428.076836
4435.008932
4446.897959
4398.022231
4449.261153
4376.455582
4446.004498
4427.809662
4428.918499
4429.874545
4429.998128
4428.786009
4427.408167
4426.950324
4425.000696
4426.070188
4424.383814
4427.909312
4430.527078
4428.709942
4428.652383
4426.871189
4430.094577
4400.297425
4452.983500
4453.335995
4462.996904
4430.675483
4459.199961
4448.559753
4405.287719
4456.740795
4424.817187
4429.718305
4461.380163
4381.187874
4435.197004
4399.362102
4427.714861
4428.512570
4427.063683
4426.397954
4427.320026
4428.967082
4429.187342
4432.192672
4431.217307
4430.530148
4426.681451
4424.717659
4425.638949
4426.804457
4425.662283
4430.298290
4425.252424
4416.970800
4390.790698
4423.362369
4420.697823
4432.214090
4443.561476
4454.409344
4443.650073
4466.158972
4389.615995
4427.007336
4420.534740
4433.537308
4442.833077
4427.596718
4429.242419
4429.483669
4430.142160
4428.915009
4427.628535
4426.627913
4425.989823
4425.284824
4424.881760
4426.878782
4430.336214
4427.577464
4426.618469
4425.545795
4417.189451
4440.041784
4434.452915
4420.465117
4439.450469
4433.410197
4443.119564
4433.627449
4433.435401
4415.490540
4413.781061
4448.506583
4402.825887
4413.478692
4505.308484
4444.363256
4427.443381
4429.018771
4426.306487
4427.152846
4426.320586
4429.875050
4428.219212
4432.680689
4430.869475
4430.456363
4426.365663
4424.552990
4424.802811
4425.722670
4425.293746
4423.653158
4424.560144
4391.116237
4449.155397
4438.837443
4418.219895
4425.500346
4427.385491
4418.508764
4450.222572
4431.444807
4450.297147
4383.542516
4410.952973
4405.419400
4452.876936
4427.381053
4429.742081
4428.948849
4431.001559
4428.252911
4428.384674
4425.612784
4426.820624
4424.734933
4425.298525
4426.329938
4430.224181
4427.295246
4427.547316
4423.706631
4425.495510
4433.190273
4416.407538
4443.164430
4419.625842
4437.954533
4416.483151
4439.320528
4436.895968
4433.353301
4411.364847
4428.038864
4422.643884
4442.152848
4407.254401
4398.160345
4427.571169
4428.720844
4426.742627
4426.303839
4427.011719
4428.654362
4428.707720
4432.753486
4430.752416
4430.990975
4426.161851
4425.294496
4424.058507
4425.940122
4424.775783
4429.995316
4431.615587
4399.319468
4395.577347
4430.310576
4446.002212
4422.387014
4424.887657
4413.907043
4463.111539
4440.487818
4428.945797
4455.411130
4402.993253
4430.836101
4429.504249
4427.801497
4429.110516
4429.835375
4430.629068
4428.380339
4428.382801
4426.394653
4426.177094
4426.654817
4424.536083
4426.774441
4429.949276
4429.093429
4426.771219
4425.108908
4409.510706
4411.873783
4424.967142
4431.404572
4399.027924
4431.988882
4441.170401
4419.340408
4462.218527
4417.916821
4450.288560
4404.521968
4422.834610
4421.483928
4423.536438
4415.126617
4427.922284
4428.580834
4426.949971
4425.776664
4427.123243
4427.618261
4429.685365
4431.942075
4431.128504
4430.523004
4427.053694
4423.505384
4424.996632
4425.087278
4425.634276
4443.275581
4448.292311
4443.259454
4457.789874
4384.815693
4415.182046
4436.443358
4410.850873
4471.674502
4458.056568
4443.133198
4389.642579
4440.901657
4437.939598
4419.352918
4430.689189
4427.851250
4428.468005
4430.412330
4429.449947
4429.564512
4427.112155
4427.723957
4425.132105
4427.534087
4423.518168
4426.481920
4430.634724
4427.721535
4425.654605
4428.073650
4439.177287
4423.453166
4413.109069
4458.774500
4386.573212
4435.445056
4427.536048
4430.511723
4433.457603
4459.698607
4463.258198
4401.935306
4423.454741
4429.083935
4370.664652
4433.237228
4427.717044
4428.873936
4426.782630
4426.256839
4426.042931
4428.801610
4428.882414
4432.543960
4431.504809
4431.469966
4426.753497
4423.910346
4423.758143
4424.123535
4424.383179
4429.410413
4422.552924
4418.958600
4379.531383
4429.856544
4443.909960
4444.423637
4422.077504
4397.408502
4446.195680
4401.739192
4415.701390
4398.671812
4438.218967
4411.208885
4445.074795
4427.499387
4429.673786
4428.618264
4431.536631
4428.841372
4428.846420
4426.966455
4427.802146
4425.964236
4424.442194
4426.761623
4429.704297
4427.278814
4426.941965
4423.370667
4426.725051
4425.152256
4425.878921
4427.625798
4455.135617
4416.463958
4415.200255
4476.502492
4396.706613
4452.446285
4411.727674
4391.405667
4481.768126
4419.552868
4565.848134
4411.402791
4427.493931
4429.011877
4427.233733
4426.151557
4426.329306
4429.036732
4427.760956
4433.947849
4430.156572
4431.144584
4425.991845
4425.666638
4422.593016
4425.489257
4421.941399
4435.568736
4438.461950
4439.245846
4416.901086
4464.921351
4461.766011
4440.421445
4432.848779
4469.304733
4443.370411
4437.870009
4452.938962
4446.043554
4434.451708
4275.348288
4428.902922
4427.940219
4430.040614
4428.746933
4432.344983
4427.859458
4429.632483
4425.257048
4428.273178
4423.899947
4425.983776
4424.954397
4429.352344
4426.363910
4427.064363
4420.588959
4426.858235
4408.127020
4408.996894
4428.443444
4448.137551
4415.985512
4439.627017
4444.284721
4437.981486
4420.277327
4411.720929
4443.020390
4450.937903
4447.439705
4377.229446
4395.842381