# vtk DataFile Version 2.0
mfree iwf
ASCII

DATASET UNSTRUCTURED_GRID
POINTS 10914 float
0.000000 0.000445 0.000000
0.000000 0.000450 0.000000
0.000000 0.000455 0.000000
0.000000 0.000460 0.000000
0.000000 0.000465 0.000000
0.000000 0.000470 0.000000
0.000000 0.000475 0.000000
-0.000000 0.000480 0.000000
0.000000 0.000485 0.000000
0.000000 0.000490 0.000000
-0.000000 0.000496 0.000000
0.000002 0.000500 0.000000
0.000859 0.000920 0.000000
0.000868 0.000920 0.000000
0.000915 0.000914 0.000000
0.000920 0.000912 0.000000
0.000920 0.000913 0.000000
0.000927 0.000911 0.000000
0.000934 0.000909 0.000000
0.000930 0.000911 0.000000
0.000944 0.000907 0.000000
0.000970 0.000900 0.000000
0.000976 0.000897 0.000000
0.000979 0.000894 0.000000
0.000983 0.000892 0.000000
0.000988 0.000889 0.000000
0.000992 0.000886 0.000000
0.000996 0.000882 0.000000
0.000999 0.000880 0.000000
0.001004 0.000876 0.000000
0.001009 0.000873 0.000000
0.001031 0.000863 0.000000
0.000005 0.000445 0.000000
0.000005 0.000450 0.000000
0.000005 0.000455 0.000000
0.000005 0.000460 0.000000
0.000005 0.000465 0.000000
0.000005 0.000470 0.000000
0.000005 0.000475 0.000000
0.000005 0.000480 0.000000
0.000005 0.000485 0.000000
0.000006 0.000490 0.000000
0.000003 0.000496 0.000000
0.000006 0.000499 0.000000
0.000910 0.000914 0.000000
0.000916 0.000906 0.000000
0.000950 0.000904 0.000000
0.000957 0.000902 0.000000
0.000962 0.000901 0.000000
0.000965 0.000899 0.000000
0.000968 0.000898 0.000000
0.000971 0.000894 0.000000
0.000974 0.000892 0.000000
0.000980 0.000888 0.000000
0.000985 0.000884 0.000000
0.000991 0.000881 0.000000
0.000995 0.000876 0.000000
0.001003 0.000872 0.000000
0.001006 0.000869 0.000000
0.001011 0.000866 0.000000
0.001022 0.000864 0.000000
0.001024 0.000863 0.000000
0.001019 0.000865 0.000000
0.001028 0.000862 0.000000
0.000010 0.000445 0.000000
0.000010 0.000450 0.000000
0.000010 0.000455 0.000000
0.000010 0.000460 0.000000
0.000010 0.000465 0.000000
0.000010 0.000469 0.000000
0.000010 0.000475 0.000000
0.000010 0.000480 0.000000
0.000009 0.000486 0.000000
0.000012 0.000489 0.000000
0.000009 0.000497 0.000000
0.000011 0.000498 0.000000
0.000910 0.000910 0.000000
0.000920 0.000904 0.000000
0.000936 0.000904 0.000000
0.000943 0.000904 0.000000
0.000948 0.000903 0.000000
0.000953 0.000902 0.000000
0.000944 0.000897 0.000000
0.000954 0.000895 0.000000
0.000959 0.000894 0.000000
0.000965 0.000892 0.000000
0.000975 0.000887 0.000000
0.000979 0.000885 0.000000
0.000980 0.000880 0.000000
0.000984 0.000877 0.000000
0.000990 0.000876 0.000000
0.001000 0.000872 0.000000
0.001014 0.000864 0.000000
0.001016 0.000863 0.000000
0.001022 0.000858 0.000000
0.001025 0.000853 0.000000
0.000015 0.000445 0.000000
0.000016 0.000450 0.000000
0.000014 0.000456 0.000000
0.000017 0.000460 0.000000
0.000014 0.000469 0.000000
0.000016 0.000464 0.000000
0.000014 0.000476 0.000000
0.000016 0.000480 0.000000
0.000014 0.000485 0.000000
0.000016 0.000489 0.000000
0.000014 0.000495 0.000000
0.000016 0.000497 0.000000
0.000025 0.000500 0.000000
0.000923 0.000905 0.000000
0.000938 0.000903 0.000000
0.000935 0.000899 0.000000
0.000949 0.000896 0.000000
0.000957 0.000900 0.000000
0.000962 0.000890 0.000000
0.000967 0.000888 0.000000
0.000963 0.000884 0.000000
0.000971 0.000885 0.000000
0.000983 0.000872 0.000000
0.000986 0.000881 0.000000
0.000991 0.000870 0.000000
0.000996 0.000871 0.000000
0.000997 0.000866 0.000000
0.001002 0.000866 0.000000
0.001007 0.000861 0.000000
0.001011 0.000860 0.000000
0.001015 0.000857 0.000000
0.001023 0.000850 0.000000
0.000019 0.000445 0.000000
0.000021 0.000450 0.000000
0.000018 0.000455 0.000000
0.000022 0.000459 0.000000
0.000019 0.000469 0.000000
0.000025 0.000467 0.000000
0.000018 0.000475 0.000000
0.000022 0.000479 0.000000
0.000019 0.000486 0.000000
0.000021 0.000491 0.000000
0.000021 0.000497 0.000000
0.000022 0.000499 0.000000
0.000039 0.000500 0.000000
0.000921 0.000893 0.000000
0.000927 0.000900 0.000000
0.000935 0.000894 0.000000
0.000941 0.000900 0.000000
0.000951 0.000891 0.000000
0.000953 0.000886 0.000000
0.000968 0.000883 0.000000
0.000958 0.000885 0.000000
0.000970 0.000876 0.000000
0.000973 0.000869 0.000000
0.000977 0.000866 0.000000
0.000982 0.000867 0.000000
0.000992 0.000864 0.000000
0.000999 0.000856 0.000000
0.001004 0.000858 0.000000
0.001008 0.000855 0.000000
0.001016 0.000851 0.000000
0.001019 0.000854 0.000000
0.001021 0.000846 0.000000
0.000024 0.000445 0.000000
0.000026 0.000450 0.000000
0.000024 0.000455 0.000000
0.000026 0.000461 0.000000
0.000021 0.000465 0.000000
0.000024 0.000472 0.000000
0.000023 0.000476 0.000000
0.000026 0.000481 0.000000
0.000023 0.000485 0.000000
0.000026 0.000488 0.000000
0.000026 0.000492 0.000000
0.000027 0.000500 0.000000
0.000889 0.000918 0.000000
0.000926 0.000903 0.000000
0.000931 0.000903 0.000000
0.000946 0.000893 0.000000
0.000941 0.000889 0.000000
0.000957 0.000890 0.000000
0.000958 0.000880 0.000000
0.000949 0.000885 0.000000
0.000959 0.000876 0.000000
0.000973 0.000880 0.000000
0.000976 0.000874 0.000000
0.000976 0.000877 0.000000
0.000987 0.000872 0.000000
0.000988 0.000866 0.000000
0.001001 0.000861 0.000000
0.000996 0.000861 0.000000
0.001011 0.000853 0.000000
0.001004 0.000852 0.000000
0.001014 0.000847 0.000000
0.001018 0.000842 0.000000
0.000030 0.000445 0.000000
0.000031 0.000450 0.000000
0.000029 0.000456 0.000000
0.000031 0.000460 0.000000
0.000031 0.000464 0.000000
0.000028 0.000469 0.000000
0.000032 0.000472 0.000000
0.000030 0.000477 0.000000
0.000030 0.000486 0.000000
0.000031 0.000492 0.000000
0.000033 0.000497 0.000000
0.000030 0.000499 0.000000
0.000048 0.000500 0.000000
0.000916 0.000900 0.000000
0.000931 0.000891 0.000000
0.000940 0.000893 0.000000
0.000936 0.000889 0.000000
0.000945 0.000888 0.000000
0.000954 0.000877 0.000000
0.000966 0.000874 0.000000
0.000964 0.000879 0.000000
0.000969 0.000871 0.000000
0.000979 0.000871 0.000000
0.000984 0.000858 0.000000
0.000986 0.000863 0.000000
0.000990 0.000859 0.000000
0.000995 0.000852 0.000000
0.000994 0.000857 0.000000
0.001002 0.000848 0.000000
0.001008 0.000848 0.000000
0.001013 0.000844 0.000000
0.001016 0.000839 0.000000
0.000035 0.000445 0.000000
0.000035 0.000450 0.000000
0.000034 0.000455 0.000000
0.000038 0.000455 0.000000
0.000034 0.000466 0.000000
0.000037 0.000472 0.000000
0.000032 0.000479 0.000000
0.000042 0.000479 0.000000
0.000035 0.000483 0.000000
0.000034 0.000488 0.000000
0.000037 0.000491 0.000000
0.000036 0.000498 0.000000
0.000847 0.000917 0.000000
0.000885 0.000919 0.000000
0.000926 0.000894 0.000000
0.000932 0.000886 0.000000
0.000946 0.000880 0.000000
0.000938 0.000877 0.000000
0.000952 0.000881 0.000000
0.000953 0.000873 0.000000
0.000963 0.000871 0.000000
0.000960 0.000866 0.000000
0.000967 0.000860 0.000000
0.000976 0.000857 0.000000
0.000980 0.000861 0.000000
0.000984 0.000852 0.000000
0.000999 0.000850 0.000000
0.000993 0.000839 0.000000
0.001004 0.000843 0.000000
0.001007 0.000842 0.000000
0.001010 0.000839 0.000000
0.001012 0.000834 0.000000
0.000040 0.000445 0.000000
0.000041 0.000450 0.000000
0.000037 0.000462 0.000000
0.000040 0.000458 0.000000
0.000041 0.000463 0.000000
0.000040 0.000468 0.000000
0.000041 0.000473 0.000000
0.000037 0.000477 0.000000
0.000041 0.000488 0.000000
0.000042 0.000491 0.000000
0.000041 0.000497 0.000000
0.000044 0.000498 0.000000
0.000710 0.000839 0.000000
0.000912 0.000906 0.000000
0.000917 0.000896 0.000000
0.000928 0.000881 0.000000
0.000942 0.000883 0.000000
0.000948 0.000876 0.000000
0.000943 0.000878 0.000000
0.000958 0.000871 0.000000
0.000966 0.000866 0.000000
0.000970 0.000864 0.000000
0.000963 0.000862 0.000000
0.000972 0.000855 0.000000
0.000980 0.000855 0.000000
0.000987 0.000847 0.000000
0.000989 0.000854 0.000000
0.000992 0.000849 0.000000
0.000996 0.000845 0.000000
0.001000 0.000839 0.000000
0.001007 0.000836 0.000000
0.001010 0.000830 0.000000
0.000044 0.000445 0.000000
0.000047 0.000450 0.000000
0.000044 0.000454 0.000000
0.000046 0.000461 0.000000
0.000044 0.000467 0.000000
0.000046 0.000473 0.000000
0.000046 0.000479 0.000000
0.000039 0.000483 0.000000
0.000052 0.000486 0.000000
0.000045 0.000483 0.000000
0.000048 0.000493 0.000000
0.000050 0.000498 0.000000
0.000715 0.000845 0.000000
0.000906 0.000914 0.000000
0.000930 0.000895 0.000000
0.000937 0.000883 0.000000
0.000934 0.000880 0.000000
0.000948 0.000871 0.000000
0.000950 0.000867 0.000000
0.000955 0.000867 0.000000
0.000959 0.000860 0.000000
0.000968 0.000857 0.000000
0.000975 0.000863 0.000000
0.000982 0.000849 0.000000
0.000973 0.000851 0.000000
0.000981 0.000845 0.000000
0.000990 0.000844 0.000000
0.000997 0.000841 0.000000
0.000995 0.000835 0.000000
0.001001 0.000834 0.000000
0.001004 0.000832 0.000000
0.001007 0.000826 0.000000
0.000049 0.000445 0.000000
0.000052 0.000450 0.000000
0.000048 0.000456 0.000000
0.000054 0.000458 0.000000
0.000047 0.000464 0.000000
0.000050 0.000471 0.000000
0.000052 0.000467 0.000000
0.000051 0.000477 0.000000
0.000047 0.000488 0.000000
0.000052 0.000491 0.000000
0.000057 0.000492 0.000000
0.000053 0.000498 0.000000
0.000792 0.000900 0.000000
0.000898 0.000910 0.000000
0.000910 0.000902 0.000000
0.000927 0.000884 0.000000
0.000936 0.000874 0.000000
0.000942 0.000872 0.000000
0.000939 0.000868 0.000000
0.000946 0.000867 0.000000
0.000955 0.000856 0.000000
0.000954 0.000862 0.000000
0.000959 0.000855 0.000000
0.000968 0.000850 0.000000
0.000975 0.000845 0.000000
0.000977 0.000850 0.000000
0.000984 0.000841 0.000000
0.000986 0.000835 0.000000
0.000988 0.000839 0.000000
0.000997 0.000831 0.000000
0.001001 0.000827 0.000000
0.001004 0.000822 0.000000
0.000054 0.000445 0.000000
0.000057 0.000450 0.000000
0.000053 0.000455 0.000000
0.000052 0.000463 0.000000
0.000059 0.000466 0.000000
0.000053 0.000473 0.000000
0.000058 0.000476 0.000000
0.000056 0.000480 0.000000
0.000052 0.000483 0.000000
0.000057 0.000486 0.000000
0.000056 0.000497 0.000000
0.000059 0.000496 0.000000
0.000814 0.000907 0.000000
0.000904 0.000916 0.000000
0.000902 0.000909 0.000000
[...]
POINT_DATA 10914
SCALARS density float 1
LOOKUP_TABLE default
4427.919170
4432.774915
4429.256392
4428.731609
4431.245625
4424.785925
4436.220813
4428.793275
4428.993115
4417.833020
4429.499459
4403.641563
4425.318029
4422.711800
4417.455179
4437.449382
4439.225135
4434.862046
4448.334720
4446.789849
4424.520347
4425.969402
4396.350349
4433.243934
4431.615298
4408.058235
4440.160301
4439.772393
4414.017000
4446.824496
4421.567306
4406.841154
4430.353072
4426.970213
4425.287341
4426.824275
4437.282422
4420.722923
4425.653906
4421.646881
4424.994198
4431.350645
4452.641335
4408.660649
4418.689315
4416.776282
4415.240446
4412.783084
4419.194158
4418.777174
4448.789254
4458.221031
4435.009068
4423.436893
4429.938804
4385.097953
4432.533785
4400.430027
4432.164546
4466.677954
4419.307878
4433.176911
4403.562659
4403.309265
4421.810831
4428.150913
4438.586871
4422.696967
4424.799017
4425.764879
4453.415691
4395.638138
4465.911452
4384.449219
4448.650493
4397.819697
4452.364721
4456.319354
4446.234881
4403.117868
4422.305651
4407.190839
4462.988420
4425.799013
4418.372159
4388.079471
4425.116216
4437.968515
4384.038919
4423.598210
4445.695830
4410.083472
4423.342086
4434.527845
4455.926059
4415.004578
4423.150227
4432.822545
4435.256475
4422.541514
4412.828251
4438.723458
4455.066823
4385.647020
4473.426966
4386.799575
4509.069874
4406.708487
4435.252046
4391.134745
4418.739923
4436.079744
4478.291853
4451.353138
4448.229383
4398.977336
4428.307304
4434.038451
4417.482853
4466.135201
4409.757936
4456.959617
4427.189058
4463.978822
4437.754326
4349.784578
4501.826167
4451.201767
4435.744883
4428.706736
4439.986999
4433.224065
4425.384602
4451.340614
4431.442174
4447.706038
4467.941426
4369.467851
4465.861474
4434.596172
4418.676806
4445.521359
4459.754888
4412.554165
4463.919909
4430.528960
4447.774009
4443.461444
4442.715334
4392.963484
4402.221505
4434.624157
4408.078591
4418.715354
4409.476381
4455.548911
4460.261351
4389.484425
4373.479449
4420.492126
4432.048211
4432.904080
4433.722948
4411.950222
4435.222425
4417.486653
4465.533952
4361.884143
4431.899250
4471.282663
4418.198417
4423.894067
4431.982846
4432.393492
4380.361663
4385.618391
4466.687617
4414.922153
4414.375563
4418.650211
4465.644392
4435.248313
4444.802029
4463.816231
4447.802550
4453.544723
4395.645933
4425.058006
4439.199716
4425.198606
4465.933678
4411.343610
4426.328677
4429.434728
4428.506810
4445.082900
4438.251870
4434.995982
4392.650468
4450.060753
4440.200896
4405.644478
4456.406274
4418.385726
4424.703093
4438.811502
4462.569031
4410.264982
4413.961954
4466.814436
4452.049650
4458.431176
4414.340045
4449.354042
4445.890384
4450.307426
4443.427698
4399.858051
4409.100374
4461.288892
4428.405554
4375.905409
4436.232780
4437.070469
4431.635489
4416.060209
4431.365565
4440.393724
4433.292047
4436.753517
4454.935673
4435.125025
4415.202656
4434.050644
4413.956284
4446.903655
4419.300943
4423.346440
4391.089862
4409.719299
4448.455675
4452.880292
4404.898712
4413.263059
4420.473759
4446.666734
4427.589309
4422.680219
4412.273127
4455.088737
4446.551663
4466.891846
4455.789203
4454.183784
4401.122880
4415.967929
4430.467000
4436.258965
4407.158938
4446.934526
4428.732006
4434.757617
4438.886289
4413.928333
4450.849889
4430.401049
4430.820062
4421.611895
4427.563950
4454.218038
4402.188779
4434.111762
4402.640721
4439.543273
4438.662508
4425.038293
4429.084190
4434.090121
4441.070909
4416.062077
4438.352052
4422.505500
4396.876666
4454.364719
4408.937288
4394.880001
4429.605513
4432.115479
4436.268531
4419.362476
4413.926368
4422.622672
4400.884758
4422.542050
4447.752833
4418.303894
4445.406806
4422.189814
4466.601707
4434.390684
4435.312114
4435.200101
4407.685009
4445.769057
4421.337134
4429.042956
4431.951749
4448.572557
4418.176302
4424.420574
4439.431692
4401.922958
4444.381548
4456.524324
4429.803806
4432.211383
4443.014872
4420.998392
4443.135213
4425.684840
4428.612223
4428.412151
4424.005339
4440.419180
4447.533572
4462.271615
4418.059358
4373.960107
4385.134435
4423.741794
4522.555557
4405.868070
4433.920860
4436.864954
4392.251697
4446.795510
4430.844438
4393.239654
4457.911290
4448.811081
4439.836593
4424.549043
4451.580123
4435.399687
4392.771575
4457.367051
4433.799191
4446.622264
4406.070526
4431.003361
4416.288152
4428.366243
4435.727460
4431.912091
4440.917225
4402.774201
4449.666626
4460.659680
4419.766608
4465.076969
4477.783086
4361.077829
4406.197090
4396.345426
4430.841617
4429.188539
4427.191496
4404.185962
4456.948566
4441.843933
4414.185175
4433.015732
4422.901840
4394.896220
4445.651749
4435.948452
4420.675541
4441.459102
4463.855706
4398.874696
4428.771757
4446.499152
4427.615157
4420.657407
4421.911985
4428.090542
4416.724971
4385.715636
4435.700130
4431.909333
4407.067230
4434.605646
4435.448905
4432.676051
4437.469135
4429.656284
4411.774222
4429.207950
4417.394559
4384.987306
4384.789666
4420.833032
4424.917586
4425.649874
4442.417140
4445.807673
4434.952740
4428.034234
4423.890139
4436.821467
4396.260838
4422.326591
4441.475983
4422.082724
4441.960144
4430.712930
4442.575967
4411.706467
4439.059850
4420.296136
4449.076205
4462.949298
4431.839729
4377.773428
4457.562498
4380.950446
4473.422950
4421.570666
4414.209680
4430.512773
4397.353964
4396.798563
4437.248047
4390.393410
4442.722738
4408.611707
4421.796640
4435.853808
4451.417385
4432.263980
4401.690535
4459.725499
4440.831046
4419.234061
4441.527617
4438.760060
4416.192329
4434.008938
4430.972972
4428.105501
4400.914416
4453.644262
4439.572792
4418.952700
4428.558342
4444.594534
4415.443997
4404.683315
4435.200103
4444.418111
4426.251531
4433.696175
4437.686334
4468.682765
4449.484376
4449.579988
4440.178756
4453.837807
4386.769035
4427.722720
4408.530229
4420.461253
4448.307414
4452.501710
4436.162693
4416.178721
4426.692807
4408.716333
4439.942044
4432.392405
4436.832084
4421.345465
4470.557546
4395.175598
4422.859687
4405.650767
4451.636586
4451.637346
4461.197046
4362.441810
4414.017150
4446.070905
4430.944644
4416.716863
4428.022975
4443.285000
4446.350210
4431.845084
4400.622060
4445.814956
4399.537154
4403.619606
4435.385679
4439.447355
4411.749405
4402.392403
4409.969450
4404.356439
4436.937896
4421.439248
4433.960569
4420.714676
4415.783319
4432.097991
4459.633015
4435.453132
4411.398229
4460.207320
4379.615380
4447.652980
4433.016679
4471.267010
4420.313029
4426.720217
4427.874944
4423.946474
4435.585174
4434.905023
4473.624290
4440.394713
4422.906022
4448.406824
4433.815420
4445.944102
4455.124266
4428.465499
4412.991747
4410.143199
4424.871755
4438.221198
4424.881499
4451.305959
4427.185383
4442.858090
4438.561477
4431.867323
4417.354937
4420.424809
4410.812965
4464.587258
4447.732815
4420.525574
4445.623208
4380.141073
4437.605543
4455.427440
4432.413379
4432.373829
4442.537095
4438.903653
4463.981645
4420.606139
4480.981251
4463.683399
4420.730324
4450.538183
4417.593932
4447.512948
4450.704243
4431.491460
4419.082006
4420.577868
4444.342140
4424.391148
4423.882663
4426.448227
4419.018912
4436.394573
4420.205296
4442.811829
4404.505756
4428.936900
4455.058177
4425.503308
4446.639629
4425.708479
4402.939901
4431.506436
4414.432647
4423.345027
4426.540196
4436.091320
4427.057250
4433.581191
4431.848632
4424.504296
4434.740054
4457.071824
4419.780848
4411.112804
4426.283776
4446.485895
4430.619876
4446.121404
4414.690602
4428.103908
4429.926771
4432.522843
4441.101162
4414.773836
4435.058850
4458.822152
4420.303833
4420.670965
4419.302353
4431.180260
4436.955157
4424.554890
4427.397927
4432.393945
4424.723788
4440.493185
4441.835568
4456.218001
4444.655911
4443.006321
4409.094112
4426.444487
4479.748669
4410.191174
4421.240556
4450.581774
4371.971946
4433.998053
4423.821312
4426.001545
4420.090954
4448.489414
4425.463511
4437.413534
4420.731442
4447.047633
4445.737751
4411.988102
4416.254034
4441.214270
4440.858002
4413.677433
4462.498899
4479.433348
4395.394706
4509.422861
4430.321081
4419.315323
4436.466847
4473.349047
4439.847958
4433.465587
4368.627955
4438.544474
4415.564051
4451.212241
4464.273334
4487.423661
4448.162200
4449.936004
4403.034786
4467.819259
4445.368136
4416.499199
4412.684199
4428.605774
4418.647169
4418.275045
4411.500980
4436.788508
4421.446005
4412.607109
4435.064177
4421.732158
4440.890336
4377.864463
4436.225788
4434.159529
4424.937837
4427.478220
4428.662167
4443.916774
4451.433048
4414.351852
4437.143150
4432.890198
4409.828587
4353.302546
4457.320097
4393.507677
4426.258127
4407.786103
4443.393251
4398.436336
4440.288332
4421.337102
4444.828299
4436.062894
4438.839141
4395.791671
4450.557784
4441.971286
4440.237586
4442.268436
4449.368298
4402.800033
4435.046043
4379.614247
4373.140377
4473.628276
4425.142899
4431.885942
4393.541657
4446.379854
4446.301400
4431.024083
4441.698618
4448.667850
4449.182336
4390.068306
4360.798295
4450.388232
4361.152192
4390.995666
4447.423462
4435.298672
4448.182897
4404.835377
4421.359414
4416.746702
4435.823907
4418.667844
4467.635143
4441.085588
4423.927294
4419.271169
4409.678609
4439.172618
4458.028056
4459.412542
4435.392176
4430.730145
4429.833193
4439.061482
4411.576452
4389.245138
4366.401060
4437.260553
4401.812289
4447.716185
4393.669732
4430.297010
4442.186740
4446.790004
4456.637612
4491.018445
4432.037711
4422.272289
4441.404661
4416.723941
4457.477512
4420.702906
4425.715445
4429.863339
4429.688211
4429.782658
4429.665097
4429.329719
4429.205547
4429.036516
4429.465701
4430.034947
4430.916125
4431.188751
4431.153509
4430.919991
4430.458482
4427.087076
4429.368581
4429.084986
4429.611433
4430.419736
4431.442165
4432.503462
4433.143796
4433.065948
4431.689044
4430.404052
4429.643876
4429.840666
4430.725052
4431.129144
4428.070189
4429.276643
4429.612412
4429.573563
4429.276162
4428.183966
4427.494527
4426.643561
4427.201166
4428.692635
4430.660519
4431.389773
4430.799029
4430.173330
4428.929055
4428.494824
4429.112432
4428.998666
4429.137652
4430.148947
4431.207478
4432.498523
4433.521404
4433.125075
4431.650256
4429.436232
4428.533847
4428.292000
4428.981710
4429.537640
4428.906942
4429.311269
4429.635909
4429.657740
4428.952349
4428.065037
4426.970292
4425.879726
4426.518940
4427.770184
4430.223657
4430.552933
4430.955551
4428.585385
4429.102270
4428.898815
4429.194720
4428.935450
4428.915706
4430.085700
4430.809473
4432.434058
4433.065825
4433.102845
4430.930470
4429.258649
4427.537188
4428.176499
4427.879085
4428.923221
4429.047894
4429.159746
4429.898199
4429.398120
4428.944745
4427.848042
4426.703884
4425.639526
4425.958254
4427.607014
4429.449994
4430.547017
4429.393657
4427.991000
4427.875648
4428.874618
4429.123728
4428.910421
4428.797636
4429.913248
4430.645780
4432.185147
4432.825842
4432.928675
4430.575547
4429.186477
4427.136346
4428.454962
4427.623333
4427.985385
4428.651410
4429.317061
4429.655609
4429.240934
4429.037139
4427.411983
4426.933455
4424.998271
4426.187690
4426.897117
4429.744317
4430.253198
4430.897011
4429.131795
4431.158438
4428.833807
4429.094817
4428.725301
4428.850501
4429.554508
4430.775034
4431.523927
4433.098520
4432.282045
4430.818851
4428.747191
4427.269972
4428.444358
4428.564863
4428.703781
4428.758099
4429.393861
4429.465891
4429.468100
4428.457155
4427.746113
4426.265769
4425.273242
4425.606698
4427.095993
4428.896135
4430.653996
4428.733303
4428.619422
4426.516126
4428.637950
4429.084242
4428.496808
4428.590741
4429.530762
4430.312614
4431.498796
4432.766876
4432.436587
4430.487506
4428.740343
4426.990893
4427.736657
4427.624760
4427.843516
4428.673522
4429.138046
4429.615217
4429.226722
4428.426431
4427.507238
4426.428590
4425.011822
4425.769676
4426.596899
4429.207249
4430.131722
4431.226445
4428.800350
4431.132676
4431.861803
4431.528984
4444.568655
4428.121401
4422.034818
4454.738994
4431.308592
4410.987951
4400.167003
4439.325778
4460.870478
4402.060592
4401.202677
4474.950203
4428.369068
4427.895007
4428.498100
4428.793644
4428.536611
4428.026852
4429.689749
4429.853470
4431.493099
4432.536517
4432.342388
4430.181548
4428.758015
4426.756187
4428.210457
4429.725086
4432.103285
4440.830304
4427.940470
4417.880892
4410.190231
4420.679158
4439.950891
4436.407356
4399.542363
4397.421590
4428.051612
4445.208302
4433.507010
4433.432475
4435.964297
4415.003180
4405.856113
4428.282008
4428.997996
4429.603040
4428.946688
4428.504976
4427.066908
4426.792620
4424.594163
4425.837538
4426.125908
4428.660710
4430.020624
4429.813386
4428.814772
4429.818419
4450.781359
4451.470896
4433.682261
4427.218913
4410.041189
4450.384940
4422.861307
4413.467582
4404.885909
4427.972678
4441.502593
4416.374427
4444.881554
4447.186605
4449.262932
4431.405019
4428.349280
4428.752291
4428.159190
4428.027980
4429.128625
4430.042865
4430.743134
4432.816650
4431.529686
4430.302209
4428.003866
4425.999032
4427.597045
4426.460000
4430.759577
4416.030494
4397.378193
4414.766173
4385.338056
4394.777544
4451.229524
4428.108759
4448.335105
4450.215509
4457.743846
4414.544139
4432.986094
4374.842721
4387.922621
4450.926069
4450.370174
4428.093042
4429.022157
4429.455573
4428.805383
4428.470631
4426.907630
4426.825768
4424.456603
4425.751000
4425.489039
4428.327215
4429.090369
4428.643903
4425.727647
4424.911495
4440.389992
4456.578805
4434.061627
4452.873479
4445.296535
4432.931618
4442.113733
4434.305709
4404.818990
4421.305871
4391.399051
4437.932319
4422.347392
4428.634433
4431.347156
4421.376619
4427.954347
4428.735978
4427.818903
4428.031966
4428.794401
4430.097137
4430.449657
4432.728072
4431.393474
4430.131687
4427.428891
4425.681012
4426.209140
4426.191360
4423.907499
4404.791974
4413.521272
4425.245442
4415.366626
4484.515963
4384.631990
4435.533265
4440.838614
4430.713832
4391.078512
4388.572498
4399.556980
4422.026128
4408.402826
4443.241856
4418.037048
4428.281150
4429.037550
4429.388614
4429.047238
4428.186746
4427.306445
4426.420718
4425.004654
4425.184639
4425.753728
4427.498819
4429.299727
4427.223828
4426.175208
4426.838981
4449.412396
4411.932303
4441.669109
4401.929389
4359.759022
4445.895456
4433.137961
4434.312835
4449.559126
4431.735308
4409.602342
4467.158391
4452.107730
4429.194939
4466.448643
4397.338474
4427.939049
4428.509891
4427.885266
4427.567425
4428.921376
4429.668495
4430.426628
4432.550902
4431.594556
4429.925946
4427.647500
4425.459429
4426.959665
4427.148740
4426.021874
4437.858407
4423.681347
4438.554991
4455.180084
4411.999270
4468.410824
4414.359806
4423.591829
4424.757402
4415.245578
4450.857921
4382.083466
4459.007338
4377.036288
4440.681675
4427.439789
4428.170590
4428.727891
4429.665417
4428.848759
4428.438494
4426.812685
4427.160823
4424.451335
4426.087790
4424.961259
4428.242415
4429.266575
4428.359656
4427.673246
4428.237539
4433.817018
4444.166800
4399.914969
4423.642889
4447.401073
4435.354592
4422.601271
4424.673572
4353.029788
4441.360448
4413.177693
4414.313152
4471.184105
4436.877363
4400.851060
4396.682884
4427.980638
4428.190326
4428.143339
4426.802301
4429.252843
4429.072884
4430.500236
4432.370706
4431.627021
4429.959098
4427.659081
4425.710934
4428.197125
4426.562250
4429.969618
4445.083242
4441.058097
4454.999531
4459.174262
4371.603471
4420.158365
4428.610956
4442.775584
4423.609847
4435.899706
4426.165766
4443.406207
4379.691280
4428.317776
4385.169278
4447.572407
4427.979447
4428.674492
4429.623166
4428.961107
4428.265153
4426.842370
4427.273845
4424.602168
4426.084791
4424.829404
4428.059780
4429.037837
4428.618582
4427.457380
4428.283557
4442.687891
4429.732144
4441.321938
4463.042506
4461.231765
4429.860054
4458.141105
4461.656687
4385.533406
4448.359024
4430.491811
4443.279322
4451.583327
4391.392555
4418.401504
4388.076007
4427.921973
4428.385681
4427.630016
4426.977951
4428.491974
4429.396924
4429.875708
4432.396189
4431.573614
4429.837036
4427.531382
4425.628410
4426.866888
4427.310952
4425.149247
4412.290860
4433.309913
4411.856608
4410.840564
4425.427685
4415.324329
4429.828538
4443.915333
4453.292426
4433.000850
4456.479322
4396.254060
4412.161059
4417.394165
4427.131418
4448.821242
4427.750547
4428.979096
4429.408591
4428.928567
4428.451347
4427.043357
4427.128118
4425.438214
4425.562388
4425.303875
4426.976510
4429.145539
4426.950572
4426.798187
4425.555901
4426.127146
4451.671848
4437.519411
4445.765637
4429.640546
4434.310866
4444.426202
4437.965404
4423.867232
4412.364377
4421.389145
4461.243957
4427.273203
4414.752540
4519.163597
4444.287674
4427.651805
4428.979004
4426.642223
4427.845053
4427.375003
4430.472240
4428.753177
4433.189081
4430.924536
4430.347635
4426.676881
4425.800946
4426.224557
4426.349384
4426.870043
4417.650386
4475.047416
4378.500019
4460.057890
4441.477474
4423.088004
4426.519324
4421.704525
4400.216033
4423.447571
4437.088034
4446.694673
4392.888540
4410.453507
4403.979593
4454.276030
4427.567398
4429.605503
4428.821440
4429.966998
4427.615252
4428.168386
4425.846603
4426.382506
4424.963288
4425.400579
4426.511589
4428.810949
4426.561184
4427.315851
4424.548341
4438.216727
4433.536106
4428.864741
4413.270088
4441.510087
4431.993741
4421.567761
4443.028773
4457.246775
4432.483604
4403.141122
4416.281676
4409.852440
4418.491886
4396.466553
4397.071047
4427.743160
4428.654570
4427.026214
4426.885543
4428.163897
4429.185814
4429.268684
4433.050462
4430.966755
4430.749801
4426.484473
4426.349554
4425.218196
4427.192263
4424.452440
4405.584618
4414.396121
4430.701409
4416.226062
4377.690353
4436.063808
4429.123763
4426.388516
4411.132448
4475.936377
4423.692370
4436.651985
4440.311848
4410.555016
4422.409210
4432.300435
4428.069876
4428.958569
4429.784441
4429.617314
4427.869720
4428.069702
4426.848240
4425.694562
4426.823978
4424.569808
4426.936996
4428.399195
4427.970333
4426.259881
4426.708634
4419.568732
4420.703008
4431.493904
4462.662844
4395.344275
4428.993794
4442.399695
4430.525782
4458.560009
4424.516843
4438.021931
4409.186753
4443.734652
4433.645117
4415.445368
4414.993634
4428.069852
4428.333570
4427.264744
4426.056301
4428.317310
4427.942716
4430.253676
4432.035995
4431.102602
4430.198270
4427.316366
4424.142662
4426.533835
4425.061822
4426.096134
4442.532088
4457.897680
4448.012574
4445.629491
4376.806153
4413.231531
4439.481160
4406.797424
4470.866538
4457.058722
4448.712135
4391.403393
4440.727600
4444.104741
4413.115666
4431.964930
4428.006927
4428.192146
4430.495916
4428.074355
4429.145722
4426.349380
4428.328848
4424.029843
4427.699765
4423.197696
4426.572204
4428.641896
4426.461778
4425.158716
4428.151855
4438.112726
4423.382814
4431.685512
4465.832177
4380.274792
4436.595056
4434.772156
4433.830868
4431.542796
4457.449067
4453.150763
4410.984746
4415.555137
4435.251777
4390.798714
4429.872996
4427.749347
4428.521421
4426.997863
4426.338563
4427.270069
4428.966257
4429.546625
4432.582177
4431.642805
4431.146295
4427.292765
4424.543058
4424.768613
4424.286626
4423.876689
4435.261060
4430.552056
4415.230355
4371.561050
4423.547708
4446.609529
4441.058437
4435.256570
4444.475915
4443.884882
4406.120994
4421.192658
4385.171637
4432.731229
4404.715201
4444.627593
4427.576376
4429.602634
4428.569783
4430.394851
4428.130777
4428.514890
4427.263856
4427.106238
4426.209221
4424.527511
4426.490897
4427.743293
4426.563483
4425.633683
4424.845210
4439.881385
4450.000957
4433.182173
4427.956392
4447.513803
4421.610317
4416.273020
4474.558503
4390.944778
4457.984963
4433.533679
4415.007950
4462.842895
4416.410727
4561.965171
4411.168940
4427.405367
4428.958839
4426.864934
4426.541947
4427.056239
4429.683828
4427.706023
4434.305947
4429.829466
4431.037148
4425.643564
4426.327685
4423.005157
4425.814162
4421.543162
4449.735626
4402.385373
4423.554092
4425.756862
4476.169101
4457.568588
4439.936172
4438.876953
4445.845169
4425.382245
4444.443172
4427.456491
4443.823058
4447.089624
4283.294975
4433.242579
4427.942169
4430.082640
4428.665730
4431.533302
4426.922877
4429.423526
4425.298679
4427.419015
4423.615843
4425.728088
4423.769730
4427.341992
4424.630879
4426.622874
4419.359659
4426.248640
4451.854572
4420.031482
4426.618720
4445.555007
4413.773897
4439.539850
4441.881143
4436.743115
4427.003698
4401.171783
4452.716652
4462.020477
4415.118243
4374.518192
4395.397221