# vtk DataFile Version 2.0
mfree iwf
ASCII

DATASET UNSTRUCTURED_GRID
POINTS 11907 float
-0.000000 0.000445 0.000000
-0.000000 0.000450 0.000000
-0.000000 0.000455 0.000000
-0.000000 0.000460 0.000000
-0.000000 0.000465 0.000000
-0.000000 0.000470 0.000000
-0.000000 0.000475 0.000000
-0.000000 0.000480 0.000000
-0.000000 0.000485 0.000000
0.000000 0.000490 0.000000
-0.000000 0.000496 0.000000
0.000002 0.000500 0.000000
0.001279 0.001048 0.000000
0.001287 0.001046 0.000000
0.001329 0.001023 0.000000
0.001333 0.001020 0.000000
0.001333 0.001020 0.000000
0.001340 0.001016 0.000000
0.001346 0.001012 0.000000
0.001342 0.001015 0.000000
0.001354 0.001007 0.000000
0.001376 0.000991 0.000000
0.001380 0.000986 0.000000
0.001383 0.000982 0.000000
0.001385 0.000978 0.000000
0.001388 0.000974 0.000000
0.001391 0.000970 0.000000
0.001393 0.000966 0.000000
0.001396 0.000962 0.000000
0.001399 0.000957 0.000000
0.001403 0.000952 0.000000
0.001420 0.000938 0.000000
0.000005 0.000445 0.000000
0.000005 0.000450 0.000000
0.000005 0.000455 0.000000
0.000005 0.000460 0.000000
0.000005 0.000465 0.000000
0.000005 0.000470 0.000000
0.000005 0.000475 0.000000
0.000005 0.000480 0.000000
0.000005 0.000485 0.000000
0.000006 0.000489 0.000000
0.000003 0.000496 0.000000
0.000006 0.000498 0.000000
0.001325 0.001025 0.000000
0.001327 0.001015 0.000000
0.001359 0.001001 0.000000
0.001364 0.000998 0.000000
0.001368 0.000994 0.000000
0.001371 0.000992 0.000000
0.001372 0.000990 0.000000
0.001374 0.000985 0.000000
0.001377 0.000982 0.000000
0.001380 0.000977 0.000000
0.001385 0.000970 0.000000
0.001388 0.000966 0.000000
0.001391 0.000960 0.000000
0.001397 0.000953 0.000000
0.001398 0.000949 0.000000
0.001403 0.000945 0.000000
0.001412 0.000939 0.000000
0.001414 0.000938 0.000000
0.001410 0.000942 0.000000
0.001417 0.000936 0.000000
0.000010 0.000445 0.000000
0.000010 0.000450 0.000000
0.000010 0.000455 0.000000
0.000010 0.000460 0.000000
0.000010 0.000465 0.000000
0.000010 0.000469 0.000000
0.000010 0.000475 0.000000
0.000010 0.000479 0.000000
0.000009 0.000486 0.000000
0.000012 0.000489 0.000000
0.000008 0.000497 0.000000
0.000011 0.000498 0.000000
0.001323 0.001022 0.000000
0.001330 0.001013 0.000000
0.001345 0.001007 0.000000
0.001352 0.001004 0.000000
0.001356 0.001001 0.000000
0.001360 0.000998 0.000000
0.001350 0.000998 0.000000
0.001357 0.000993 0.000000
0.001362 0.000990 0.000000
0.001367 0.000986 0.000000
0.001375 0.000978 0.000000
0.001379 0.000974 0.000000
0.001378 0.000967 0.000000
0.001381 0.000964 0.000000
0.001386 0.000962 0.000000
0.001394 0.000955 0.000000
0.001404 0.000943 0.000000
0.001406 0.000941 0.000000
0.001410 0.000934 0.000000
0.001410 0.000928 0.000000
0.000015 0.000445 0.000000
0.000016 0.000450 0.000000
0.000014 0.000456 0.000000
0.000017 0.000460 0.000000
0.000014 0.000469 0.000000
0.000016 0.000465 0.000000
0.000014 0.000476 0.000000
0.000017 0.000480 0.000000
0.000014 0.000484 0.000000
0.000016 0.000489 0.000000
0.000014 0.000495 0.000000
0.000016 0.000497 0.000000
0.000025 0.000500 0.000000
0.001333 0.001013 0.000000
0.001347 0.001005 0.000000
0.001341 0.001003 0.000000
0.001353 0.000995 0.000000
0.001364 0.000995 0.000000
0.001363 0.000987 0.000000
0.001370 0.000981 0.000000
0.001366 0.000980 0.000000
0.001371 0.000976 0.000000
0.001377 0.000961 0.000000
0.001382 0.000970 0.000000
0.001385 0.000955 0.000000
0.001390 0.000956 0.000000
0.001389 0.000950 0.000000
0.001393 0.000949 0.000000
0.001396 0.000943 0.000000
0.001400 0.000939 0.000000
0.001402 0.000935 0.000000
0.001408 0.000926 0.000000
0.000019 0.000445 0.000000
0.000021 0.000450 0.000000
0.000018 0.000455 0.000000
0.000022 0.000459 0.000000
0.000019 0.000469 0.000000
0.000024 0.000467 0.000000
0.000018 0.000475 0.000000
0.000022 0.000479 0.000000
0.000019 0.000486 0.000000
0.000021 0.000490 0.000000
0.000020 0.000497 0.000000
0.000022 0.000499 0.000000
0.000039 0.000500 0.000000
0.001327 0.001002 0.000000
0.001335 0.001006 0.000000
0.001342 0.000998 0.000000
0.001347 0.001001 0.000000
0.001357 0.000988 0.000000
0.001353 0.000984 0.000000
0.001365 0.000976 0.000000
0.001357 0.000982 0.000000
0.001368 0.000971 0.000000
0.001366 0.000962 0.000000
0.001370 0.000957 0.000000
0.001376 0.000955 0.000000
0.001384 0.000950 0.000000
0.001387 0.000940 0.000000
0.001393 0.000939 0.000000
0.001395 0.000936 0.000000
0.001402 0.000930 0.000000
0.001406 0.000931 0.000000
0.001404 0.000923 0.000000
0.000024 0.000445 0.000000
0.000026 0.000450 0.000000
0.000024 0.000455 0.000000
0.000026 0.000461 0.000000
0.000021 0.000464 0.000000
0.000026 0.000472 0.000000
0.000022 0.000476 0.000000
0.000027 0.000481 0.000000
0.000023 0.000485 0.000000
0.000026 0.000489 0.000000
0.000026 0.000492 0.000000
0.000027 0.000500 0.000000
0.001307 0.001036 0.000000
0.001335 0.001010 0.000000
0.001340 0.001008 0.000000
0.001351 0.000990 0.000000
0.001347 0.000993 0.000000
0.001362 0.000983 0.000000
0.001359 0.000976 0.000000
0.001349 0.000987 0.000000
0.001355 0.000974 0.000000
0.001374 0.000972 0.000000
0.001371 0.000965 0.000000
0.001372 0.000968 0.000000
0.001381 0.000959 0.000000
0.001381 0.000954 0.000000
0.001391 0.000944 0.000000
0.001386 0.000945 0.000000
0.001398 0.000932 0.000000
0.001390 0.000934 0.000000
0.001398 0.000927 0.000000
0.001399 0.000920 0.000000
0.000030 0.000445 0.000000
0.000031 0.000450 0.000000
0.000029 0.000455 0.000000
0.000031 0.000459 0.000000
0.000031 0.000464 0.000000
0.000028 0.000468 0.000000
0.000031 0.000472 0.000000
0.000030 0.000477 0.000000
0.000030 0.000486 0.000000
0.000031 0.000492 0.000000
0.000033 0.000497 0.000000
0.000030 0.000499 0.000000
0.000048 0.000500 0.000000
0.001325 0.001010 0.000000
0.001335 0.000996 0.000000
0.001343 0.000993 0.000000
0.001340 0.000993 0.000000
0.001345 0.000988 0.000000
0.001350 0.000976 0.000000
0.001362 0.000964 0.000000
0.001363 0.000973 0.000000
0.001364 0.000967 0.000000
0.001372 0.000960 0.000000
0.001373 0.000946 0.000000
0.001377 0.000951 0.000000
0.001379 0.000946 0.000000
0.001381 0.000936 0.000000
0.001383 0.000943 0.000000
0.001388 0.000930 0.000000
0.001393 0.000930 0.000000
0.001396 0.000924 0.000000
0.001396 0.000918 0.000000
0.000035 0.000445 0.000000
0.000035 0.000450 0.000000
0.000034 0.000457 0.000000
0.000038 0.000454 0.000000
0.000035 0.000467 0.000000
0.000037 0.000472 0.000000
0.000032 0.000479 0.000000
0.000041 0.000479 0.000000
0.000034 0.000483 0.000000
0.000035 0.000488 0.000000
0.000037 0.000491 0.000000
0.000036 0.000498 0.000000
0.001266 0.001050 0.000000
0.001302 0.001039 0.000000
0.001332 0.001001 0.000000
0.001335 0.000991 0.000000
0.001348 0.000981 0.000000
0.001337 0.000982 0.000000
0.001355 0.000979 0.000000
0.001352 0.000971 0.000000
0.001359 0.000969 0.000000
0.001349 0.000963 0.000000
0.001356 0.000954 0.000000
0.001368 0.000950 0.000000
0.001372 0.000952 0.000000
0.001374 0.000943 0.000000
0.001385 0.000935 0.000000
0.001375 0.000928 0.000000
0.001387 0.000923 0.000000
0.001390 0.000927 0.000000
0.001392 0.000921 0.000000
0.001392 0.000915 0.000000
0.000040 0.000445 0.000000
0.000041 0.000450 0.000000
0.000036 0.000461 0.000000
0.000040 0.000458 0.000000
0.000041 0.000463 0.000000
0.000039 0.000468 0.000000
0.000041 0.000473 0.000000
0.000037 0.000477 0.000000
0.000041 0.000488 0.000000
0.000042 0.000491 0.000000
0.000041 0.000497 0.000000
0.000044 0.000498 0.000000
0.001112 0.001028 0.000000
0.001323 0.001018 0.000000
0.001324 0.001006 0.000000
0.001329 0.000989 0.000000
0.001343 0.000984 0.000000
0.001343 0.000977 0.000000
0.001344 0.000980 0.000000
0.001355 0.000966 0.000000
0.001359 0.000958 0.000000
0.001365 0.000958 0.000000
0.001357 0.000963 0.000000
0.001357 0.000943 0.000000
0.001366 0.000941 0.000000
0.001371 0.000935 0.000000
0.001378 0.000941 0.000000
0.001376 0.000936 0.000000
0.001382 0.000931 0.000000
0.001383 0.000926 0.000000
0.001388 0.000918 0.000000
0.001388 0.000912 0.000000
0.000044 0.000445 0.000000
0.000046 0.000450 0.000000
0.000044 0.000455 0.000000
0.000046 0.000461 0.000000
0.000044 0.000467 0.000000
0.000046 0.000473 0.000000
0.000046 0.000478 0.000000
0.000039 0.000483 0.000000
0.000052 0.000485 0.000000
0.000045 0.000483 0.000000
0.000048 0.000493 0.000000
0.000050 0.000498 0.000000
0.001118 0.001031 0.000000
0.001321 0.001027 0.000000
0.001337 0.001000 0.000000
0.001339 0.000987 0.000000
0.001334 0.000984 0.000000
0.001346 0.000971 0.000000
0.001343 0.000968 0.000000
0.001350 0.000967 0.000000
0.001349 0.000958 0.000000
0.001361 0.000954 0.000000
0.001365 0.000953 0.000000
0.001371 0.000940 0.000000
0.001362 0.000945 0.000000
0.001368 0.000935 0.000000
0.001378 0.000932 0.000000
0.001378 0.000925 0.000000
0.001378 0.000921 0.000000
0.001382 0.000919 0.000000
0.001384 0.000915 0.000000
0.001384 0.000909 0.000000
0.000049 0.000445 0.000000
0.000053 0.000450 0.000000
0.000049 0.000454 0.000000
0.000052 0.000455 0.000000
0.000048 0.000465 0.000000
0.000049 0.000472 0.000000
0.000052 0.000467 0.000000
0.000051 0.000478 0.000000
0.000047 0.000488 0.000000
0.000052 0.000491 0.000000
0.000057 0.000492 0.000000
0.000053 0.000498 0.000000
0.001209 0.001054 0.000000
0.001311 0.001026 0.000000
0.001320 0.001014 0.000000
0.001330 0.000991 0.000000
0.001334 0.000978 0.000000
0.001341 0.000974 0.000000
0.001336 0.000973 0.000000
0.001340 0.000968 0.000000
0.001345 0.000956 0.000000
0.001353 0.000959 0.000000
0.001350 0.000954 0.000000
0.001359 0.000949 0.000000
0.001356 0.000938 0.000000
0.001365 0.000946 0.000000
0.001367 0.000930 0.000000
0.001367 0.000922 0.000000
0.001371 0.000928 0.000000
0.001375 0.000917 0.000000
0.001380 0.000913 0.000000
0.001380 0.000906 0.000000
0.000053 0.000445 0.000000
0.000058 0.000451 0.000000
0.000055 0.000461 0.000000
0.000050 0.000460 0.000000
0.000060 0.000466 0.000000
0.000053 0.000473 0.000000
0.000057 0.000476 0.000000
0.000057 0.000480 0.000000
0.000052 0.000483 0.000000
0.000057 0.000486 0.000000
0.000056 0.000497 0.000000
0.000059 0.000496 0.000000
0.001232 0.001053 0.000000
0.001320 0.001028 0.000000
[...]
POINT_DATA 11907
SCALARS density float 1
LOOKUP_TABLE default
4427.810785
4430.382061
4425.221113
4428.741325
4431.981236
4426.584013
4435.781115
4427.706042
4430.623301
4419.627725
4429.533256
4406.305003
4427.366609
4418.452980
4413.846598
4440.290058
4437.886629
4436.335354
4454.627318
4455.342472
4426.369708
4419.387336
4398.061123
4445.527297
4423.998898
4427.643895
4450.616542
4420.094507
4432.276115
4447.556811
4427.696725
4407.909974
4431.203990
4432.136457
4430.762777
4426.627787
4431.910604
4421.503606
4427.055431
4422.642118
4424.854987
4432.553876
4448.970395
4409.128299
4409.660258
4420.803570
4422.210416
4411.868506
4420.746781
4430.907888
4444.358723
4463.615565
4435.242600
4431.553912
4429.164020
4395.585191
4447.106108
4399.371399
4437.700132
4462.452930
4423.754756
4440.189924
4402.995857
4405.186636
4421.191227
4425.761014
4432.652701
4421.392367
4432.008376
4422.397978
4455.518735
4397.197623
4464.849702
4382.648534
4447.187029
4402.329097
4471.277486
4444.583060
4430.501872
4396.375333
4417.078183
4412.603420
4470.078163
4455.274868
4442.675369
4385.021839
4424.353492
4415.265479
4398.479139
4468.817172
4406.603216
4389.673803
4425.646680
4430.011753
4442.207012
4410.583426
4424.783697
4439.611761
4446.008161
4417.224142
4419.171537
4450.051572
4450.672213
4390.159614
4467.300199
4389.826944
4508.765774
4406.837673
4434.611222
4398.552518
4415.602655
4479.247627
4443.269083
4429.586979
4448.467737
4379.628311
4432.732440
4414.627868
4404.086274
4436.123311
4429.941616
4452.228165
4427.214685
4485.667740
4431.208662
4361.458309
4488.783135
4442.405960
4435.967827
4422.458989
4440.738392
4432.098621
4402.119406
4436.457429
4437.009134
4434.668548
4476.419696
4369.258392
4460.947214
4432.907402
4417.464254
4442.888884
4480.502933
4371.342163
4463.840639
4390.689786
4450.619004
4443.927688
4441.404821
4382.614623
4416.954074
4434.668669
4421.600556
4417.617221
4422.762583
4477.591946
4449.152343
4420.273189
4390.649099
4416.984450
4434.339017
4431.508125
4441.606227
4415.362223
4438.831935
4422.773619
4452.689112
4378.738892
4422.888643
4464.865920
4428.777248
4423.356960
4433.952961
4418.734856
4357.666941
4442.592971
4398.965109
4443.705136
4381.017880
4458.610965
4479.038635
4470.701115
4436.443081
4450.381425
4447.628459
4446.224557
4368.637343
4438.685876
4406.726968
4395.010389
4455.609546
4422.977222
4423.446571
4431.394650
4413.836341
4438.737675
4434.938420
4444.354535
4400.388744
4448.385457
4440.543579
4404.192507
4448.569061
4418.372218
4417.942062
4443.700312
4467.535128
4467.157077
4424.268275
4419.806346
4424.417139
4437.982250
4459.221754
4447.683234
4443.500842
4434.936767
4446.836855
4393.643752
4425.439365
4451.290335
4458.883322
4426.474507
4429.413400
4444.089359
4423.996818
4435.033572
4440.322235
4436.273514
4429.632751
4436.548963
4442.009370
4430.994178
4413.358289
4429.296289
4428.336895
4443.712185
4415.219980
4427.959267
4377.501108
4381.700582
4417.790206
4441.619652
4434.367610
4443.315469
4403.186680
4466.608079
4429.074338
4425.484439
4404.909262
4452.312683
4426.845879
4422.752312
4465.736625
4409.704166
4401.867967
4410.236489
4431.412927
4418.659069
4416.359725
4431.463359
4432.862832
4434.966540
4436.928637
4424.680276
4439.520058
4430.051467
4434.559805
4420.311636
4433.361819
4455.071251
4408.218008
4444.722692
4398.720220
4458.191930
4463.787242
4429.302096
4433.997366
4414.067500
4440.736633
4416.295065
4401.018565
4423.720834
4414.259632
4429.961069
4443.949876
4373.812323
4451.113069
4431.098254
4433.796101
4413.621190
4422.547779
4446.668846
4412.629032
4433.115596
4433.991949
4426.310915
4453.757688
4431.612369
4471.536773
4433.042425
4433.758085
4437.466461
4397.580832
4440.223133
4453.588427
4399.205447
4471.172115
4443.829358
4442.450218
4438.590128
4428.354975
4437.000071
4459.453762
4452.792221
4417.964143
4466.327256
4429.865000
4413.935021
4417.029713
4452.803521
4424.465605
4415.040626
4460.215361
4400.471094
4441.163112
4456.515590
4389.695545
4381.818148
4393.646093
4427.113883
4520.515085
4411.995446
4441.320117
4428.722156
4399.011600
4461.756462
4420.976879
4410.897330
4409.404033
4438.597619
4419.450344
4398.124787
4422.659795
4405.312682
4398.204039
4422.700173
4424.926094
4446.629987
4434.514240
4440.797419
4402.546064
4423.229082
4440.854992
4425.757924
4492.124913
4405.497986
4408.394892
4453.358728
4420.529770
4429.450653
4463.866262
4351.153328
4415.358175
4404.794991
4435.137998
4426.502265
4438.263739
4413.089615
4389.239108
4451.070548
4376.020897
4401.834751
4446.894388
4410.833649
4433.070796
4433.255449
4447.126114
4431.758127
4459.079828
4388.920405
4427.661917
4455.141215
4429.040989
4426.394225
4420.800010
4404.917026
4461.726116
4412.993617
4368.396341
4452.129309
4429.457052
4383.528491
4437.967720
4419.946189
4445.136731
4435.413746
4425.067526
4428.181399
4419.342477
4378.786248
4413.900448
4438.645397
4426.718747
4468.812349
4447.879746
4436.447633
4452.644269
4423.042319
4428.481133
4444.976801
4449.649503
4402.955264
4428.004259
4397.119323
4440.766590
4433.827218
4446.067193
4438.580289
4443.590947
4443.547279
4447.987230
4422.894952
4397.907134
4467.229445
4476.484027
4414.694452
4418.311298
4439.641251
4414.640947
4428.970901
4399.419662
4369.414661
4457.917633
4390.411145
4465.610197
4379.740688
4423.783452
4457.464655
4456.410746
4425.171749
4436.251562
4438.148215
4416.296356
4414.820285
4449.178780
4453.513032
4421.700204
4417.944202
4417.055552
4438.251136
4438.445916
4463.747777
4394.830940
4391.539698
4399.667500
4439.004100
4383.860473
4443.935810
4438.293089
4454.033191
4427.871101
4438.777304
4423.396156
4460.248319
4428.095394
4428.975892
4449.353476
4459.166058
4384.519014
4415.935521
4430.370883
4424.216099
4456.932120
4415.397267
4441.748669
4422.829511
4420.472072
4409.150745
4438.074052
4436.523490
4431.330448
4438.266255
4402.603320
4453.330372
4408.037793
4455.248913
4449.800855
4445.068242
4446.748706
4382.298120
4398.165951
4451.539233
4426.805850
4431.584964
4431.930066
4444.057773
4440.592498
4428.509615
4389.188921
4434.510833
4381.417045
4403.706676
4422.183558
4421.460180
4411.560762
4436.331660
4418.614608
4434.372212
4454.721699
4398.865501
4441.711592
4420.364148
4432.108976
4435.766439
4440.131966
4409.709714
4461.438511
4378.892999
4440.363879
4447.347174
4423.348106
4381.273290
4419.615129
4425.715007
4420.759081
4421.626491
4432.132370
4439.741393
4469.653722
4400.148568
4398.453721
4442.037031
4422.992204
4459.092139
4398.481805
4459.257384
4409.397216
4428.597888
4448.257939
4400.190180
4431.162015
4438.425782
4429.021974
4439.547663
4439.717970
4427.884611
4431.749839
4430.569660
4464.927099
4390.455413
4433.371117
4441.325264
4377.336537
4500.492960
4436.720157
4450.728622
4427.954103
4426.360635
4444.927315
4439.273903
4475.249594
4412.231050
4488.100325
4489.570364
4432.132642
4434.172934
4417.091611
4420.937325
4442.400704
4408.025715
4421.340834
4445.002263
4436.702733
4440.106779
4427.914071
4427.148779
4404.271542
4420.644663
4444.206289
4429.686878
4455.829060
4465.362859
4463.106982
4466.307022
4445.053310
4437.566781
4398.817827
4427.401989
4421.896640
4419.874614
4430.416439
4450.683067
4417.858597
4436.959800
4419.366158
4424.381950
4442.922457
4449.952774
4459.404104
4386.990662
4444.302896
4426.630043
4429.001636
4431.991677
4428.295650
4404.666512
4431.815880
4431.201554
4456.671299
4413.246920
4418.196150
4423.780506
4411.519405
4390.987538
4436.835552
4434.446961
4445.845060
4425.000165
4424.189050
4436.086914
4423.460668
4441.691187
4444.949996
4475.483310
4432.223240
4472.487002
4425.486167
4434.060843
4484.391150
4426.679419
4415.175273
4414.995300
4399.851753
4423.338098
4435.009775
4430.380856
4420.361153
4443.030440
4440.058227
4435.968499
4434.994406
4440.369606
4432.177301
4428.950428
4428.093398
4438.332496
4384.529030
4392.598475
4467.794840
4464.588720
4401.853077
4480.149913
4423.128452
4414.624525
4425.755233
4476.632008
4438.307239
4424.736372
4357.984997
4433.922824
4389.126114
4450.442860
4472.771717
4420.960607
4483.677005
4456.968147
4449.776197
4428.681804
4442.217567
4422.394876
4412.829995
4433.171722
4440.218749
4424.014628
4455.648337
4401.858340
4434.934269
4404.234063
4440.708120
4433.205126
4441.196117
4377.691491
4431.691225
4436.416530
4433.836762
4416.919292
4435.384701
4436.542522
4450.105088
4423.485476
4452.249355
4434.386554
4437.898025
4356.384471
4463.945329
4426.037721
4435.739521
4414.068976
4413.468078
4444.241008
4413.858412
4435.182573
4435.149188
4436.249225
4411.949525
4440.560607
4429.150632
4417.242643
4459.339987
4421.565193
4441.190074
4457.944783
4441.424194
4418.191686
4418.530794
4449.885135
4434.195274
4460.821458
4380.782117
4453.055570
4432.977039
4439.615771
4426.188416
4447.580936
4451.062094
4398.306640
4356.878116
4485.408515
4434.006080
4422.219201
4387.127555
4421.229459
4431.827231
4428.455152
4422.590110
4422.772670
4433.281391
4420.547118
4431.660766
4427.636135
4412.373943
4415.113203
4394.832594
4398.093844
4411.197769
4442.467732
4430.444474
4429.112010
4454.681137
4421.682922
4439.854683
4398.715028
4350.946444
4392.479218
4422.356628
4379.074511
4374.913789
4445.595393
4434.991538
4392.977609
4435.941923
4422.089501
4417.804524
4434.522511
4422.383581
4446.164008
4443.336998
4422.182386
4428.157677
4430.403769
4430.675626
4430.858857
4430.725388
4430.212202
4429.823335
4429.397684
4429.545666
4430.276735
4431.484708
4431.985445
4431.711091
4431.282775
4430.654511
4429.017023
4429.951653
4428.938476
4428.709178
4429.446753
4430.598270
4432.146539
4433.258063
4433.642037
4432.170725
4429.671129
4428.346067
4428.959719
4430.414172
4430.846264
4429.356928
4429.993268
4431.319964
4431.812183
4431.519985
4430.112372
4428.767612
4427.304453
4427.193608
4428.610724
4431.959934
4433.436930
4432.129762
4430.549590
4428.772987
4429.885736
4429.735584
4428.618736
4428.089007
4428.637091
4430.154458
4431.701801
4433.574247
4433.621531
4432.340572
4428.804918
4426.759456
4427.125443
4428.685543
4429.199225
4429.774927
4429.701020
4431.345179
4431.767608
4431.444122
4429.902577
4428.432154
4426.440389
4426.529639
4427.689471
4431.271338
4433.118593
4432.376072
4429.379903
4429.961658
4429.761856
4429.459143
4428.782585
4427.272376
4428.888870
4429.233580
4431.900225
4432.588109
4434.025459
4430.913498
4429.473602
4425.358382
4428.042303
4428.287001
4429.746870
4429.628861
4429.529734
4431.302432
4431.552120
4431.313804
4429.536111
4428.171935
4426.003727
4426.097797
4427.436432
4430.434275
4432.876768
4431.779900
4428.836986
4428.431188
4429.522824
4429.532957
4428.428791
4427.454572
4428.144098
4429.581241
4430.964408
4432.931263
4433.001749
4431.219355
4428.491669
4425.377210
4426.478737
4427.953134
4429.210559
4428.970497
4429.825953
4430.654979
4431.656243
4431.042804
4429.309520
4427.938775
4425.663454
4425.895394
4426.919483
4430.180934
4432.511244
4431.782084
4429.399526
4429.328019
4429.348077
4429.446518
4428.252191
4427.306007
4427.923861
4429.364051
4430.740881
4432.572452
4432.680252
4430.863350
4428.202403
4425.100877
4426.778007
4427.521171
4430.129508
4429.007446
4429.573046
4430.764624
4431.441138
4430.749099
4429.328128
4427.267451
4425.854854
4425.542399
4426.640601
4429.743087
4432.072037
4430.718580
4427.491504
4423.693665
4429.213411
4429.429101
4428.037823
4427.058212
4427.836846
4428.869804
4430.871041
4432.083711
4432.617398
4430.710486
4427.705549
4425.041382
4425.262455
4426.712330
4427.496892
4428.887076
4429.341675
4430.725820
4431.216706
4430.602239
4429.119950
4427.180458
4425.604148
4425.698052
4426.305161
4429.678149
4432.384270
4431.098707
4428.481512
4429.339350
4441.943492
4448.934269
4416.614544
4455.141926
4450.658822
4461.212352
4430.385021
4421.558063
4409.125656
4462.223661
4462.134831
4392.523752
4447.794409
4474.330719
4427.704669
4416.440575
4428.999564
4429.226583
4428.141552
4426.508785
4427.958358
4428.496894
4430.778528
4431.958874
4432.266334
4430.494546
4428.466715
4424.275397
4428.059633
4428.304551
4429.845489
4439.667299
4419.841807
4426.487683
4428.397848
4406.543525
4441.945558
4437.603310
4448.298916
4391.289603
4386.529486
4435.960975
4413.547744
4426.702698
4383.535551
4469.152029
4407.192903
4428.494324
4429.252831
4430.478615
4431.012543
4430.648255
4428.611367
4427.592006
4424.910589
4426.425298
4425.820337
4429.573417
4432.862084
4430.920632
4428.551903
4430.387688
4444.283303
4448.818414
4431.913163
4442.687922
4398.103284
4448.301882
4409.676838
4425.787054
4408.258878
4445.297614
4456.048378
4422.377529
4418.686191
4447.659208
4414.957182
4415.489342
4428.821385
4429.320698
4427.833106
4426.614674
4427.477744
4428.969084
4430.044460
4432.443819
4431.081407
4431.040400
4428.178358
4424.180916
4427.580811
4426.979803
4428.969701
4447.953970
4430.006010
4421.491433
4404.298927
4396.055580
4446.866857
4436.489205
4414.281427
4429.769222
4429.907149
4420.692004
4436.090265
4399.627021
4411.261095
4433.746056
4453.169306
4428.439947
4429.504164
4429.987523
4431.289279
4430.256660
4428.948078
4427.115874
4425.341989
4426.021016
4425.840427
4428.925581
4433.174481
4429.843059
4428.664720
4428.188459
4443.408431
4438.193392
4421.966443
4465.148322
4422.529169
4438.082063
4436.792415
4475.435482
4438.187422
4447.821311
4405.909248
4430.241790
4445.171721
4416.796683
4435.850742
4420.239293
4428.487425
4429.371782
4427.596190
4426.825657
4427.098605
4429.263903
4429.834450
4432.373038
4430.818036
4430.855808
4428.109919
4424.441054
4427.115284
4427.798752
4425.973538
4438.314929
4448.687882
4435.404458
4385.176625
4483.585334
4400.370470
4421.719307
4448.429459
4469.038445
4393.373006
4445.664560
4439.116434
4408.218234
4415.474332
4453.327680
4419.070706
4428.556830
4429.624515
4429.757502
4431.357537
4430.080568
4429.098405
4426.718760
4425.937091
4425.760668
4426.205400
4428.275779
4433.433005
4428.979554
4429.339995
4428.254674
4435.908317
4442.712405
4454.203811
4447.389932
4336.329823
4437.672439
4425.832936
4425.928935
4404.921329
4443.574106
4455.877151
4477.039626
4465.403245
4429.105875
4475.881930
4417.676588
4428.379992
4429.288070
4427.503227
4426.754510
4426.936190
4429.061798
4429.773215
4432.259707
4430.704792
4430.882264
4428.282011
4424.763814
4427.398487
4427.683800
4426.810003
4417.552883
4402.004743
4369.995421
4381.088231
4392.998917
4483.684399
4433.246843
4422.428525
4423.257422
4436.427448
4433.080863
4380.739928
4407.735077
4381.216312
4457.199503
4415.981977
4428.464494
4429.278498
4429.967123
4430.854495
4430.375925
4428.502577
4427.120253
4425.683903
4426.787492
4425.589023
4428.868513
4433.181332
4430.432008
4429.297811
4428.615106
4435.239255
4439.550011
4390.514889
4404.269884
4442.206597
4435.179143
4427.971727
4424.305266
4488.276692
4456.009223
4379.212810
4400.151881
4457.088719
4399.665234
4432.721806
4406.488725
4428.414182
4428.921760
4427.804939
4426.305457
4427.273577
4428.458420
4430.046993
4431.817975
4430.923629
4430.651018
4428.402906
4424.883005
4427.662586
4427.199132
4429.353983
4445.441881
4430.513922
4437.219837
4448.286143
4374.713508
4417.983727
4427.860859
4436.354436
4380.352285
4440.894184
4456.433165
4501.591377
4400.397560
4392.042555
4429.805163
4442.762236
4428.345915
4429.214133
4429.782147
4430.799311
4430.287960
4428.417935
4427.030945
4426.092491
4426.939735
4425.388558
4428.527584
4433.046739
4430.514418
4429.097470
4427.705033
4422.546434
4446.918797
4409.538041
4452.954914
4452.605933
4434.277499
4450.924973
4472.869824
4429.365694
4444.550675
4428.985480
4438.451328
4465.216562
4397.658013
4457.841811
4408.088032
4428.295043
4429.128354
4427.423116
4426.842190
4426.551656
4429.055960
4429.346523
4431.936614
4430.597529
4430.535833
4427.795743
4424.708266
4425.965557
4426.556047
4424.871990
4426.975626
4478.776912
4446.681637
4375.439191
4440.238943
4421.900190
4444.661480
4414.754858
4459.077048
4430.306111
4417.647660
4432.404059
4445.758212
4416.652667
4410.705047
4419.217868
4428.187839
4429.480774
4429.254832
4431.056643
4430.289273
4428.343286
4426.963411
4426.697764
4426.440301
4425.630190
4427.548182
4432.856518
4428.802490
4427.871642
4425.664834
4429.031166
4422.429162
4437.449762
4422.797056
4399.438961
4442.174500
4447.801172
4432.370441
4424.019110
4435.381613
4465.824512
4404.912915
4416.024552
4384.702605
4464.416047
4444.065667
4428.082770
4429.239241
4427.317806
4427.046474
4426.275347
4429.435892
4428.979798
4432.002512
4430.191500
4430.464700
4427.352013
4424.854267
4425.576773
4426.221398
4426.963855
4406.890627
4454.437977
4397.894551
4434.322282
4453.420145
4431.993851
4428.996324
4423.927957
4406.266395
4452.205150
4417.635347
4417.642798
4373.891881
4436.010802
4388.389334
4448.351393
4428.029012
4429.602896
4428.973515
4431.403349
4429.872797
4428.492506
4426.668416
4427.237203
4426.356743
4425.835150
4427.368344
4432.416926
4429.050365
4427.728085
4425.498846
4435.095550
4420.423716
4410.236420
4449.913578
4388.968618
4401.279205
4423.081473
4446.326130
4444.059390
4429.061588
4435.877774
4406.224735
4443.552311
4470.911420
4414.655434
4400.655218
4428.257424
4429.100023
4427.571415
4426.692866
4426.716577
4428.671830
4429.249337
4432.145762
4430.050590
4430.522398
4427.629172
4425.319684
4425.721163
4425.981739
4424.941909
4420.779746
4409.678720
4428.201205
4417.229820
4412.327396
4441.604500
4420.314120
4429.403344
4421.605490
4445.943577
4508.164971
4421.196446
4437.941465
4429.037994
4446.046540
4427.312942
4428.216247
4429.223600
4429.426617
4431.001603
4429.865641
4428.369546
4426.983173
4427.004747
4427.475426
4425.633459
4427.137592
4432.762021
4429.678975
4427.958534
4427.084049
4435.400344
4419.253530
4443.592331
4438.628294
4393.800425
4429.926265
4454.529437
4432.564547
4451.504425
4406.195229
4473.886068
4417.250239
4423.262006
4441.495062
4392.005098
4420.358684
4428.551750
4429.147741
4427.600201
4426.787164
4426.597086
4428.447906
4429.372138
4431.962042
4430.377923
4430.037555
4428.326722
4424.924020
4426.490522
4425.604522
4425.910618
4450.682142
4453.054184
4431.509509
4452.361696
4382.907486
4416.927747
4443.179860
4379.736313
4467.748566
4441.159429
4446.157667
4445.043767
4455.478809
4445.457787
4400.382967
4411.576591
4428.305635
4428.926800
4429.559897
4430.485722
4430.611268
4427.502964
4427.782051
4426.791108
4428.081309
4425.056429
4427.338186
4433.156904
4428.635694
4427.045111
4426.808750
4442.787306
4443.293612
4398.024259
4462.731746
4389.528534
4435.775851
4434.514714
4436.784902
4467.107795
4452.232995
4472.701163
4413.518684
4404.629521
4457.030570
4365.714821
4425.813352
4428.369849
4429.473273
4427.438900
4427.259649
4425.938508
4429.607389
4428.748092
4431.990807
4430.961018
4430.402511
4427.505985
4425.655233
4425.298957
4424.683425
4424.898503
4422.996434
4423.792308
4416.855264
4392.375137
4434.343095
4441.987802
4443.917782
4415.296640
4385.119286
4447.145824
4400.612138
4437.127603
4442.318372
4407.090808
4395.786297
4443.663842
4428.210245
4429.489819
4428.439173
4431.707903
4430.179743
4428.493106
4427.402046
4428.818091
4426.704980
4425.430719
4428.224153
4431.731113
4428.442063
4427.856361
4425.667065
4423.874051
4408.170595
4427.766578
4426.980989
4458.389563
4417.592575
4434.886798
4500.015200
4414.728826
4398.176261
4426.073888
4399.181073
4481.924180
4419.005616
4559.769872
4412.655110
4428.298232
4429.259784
4428.096648
4426.886627
4426.704061
4429.116629
4428.619272
4432.365707
4430.792246
4429.841684
4427.298755
4427.173229
4425.635668
4426.289035
4422.913808
4441.150974
4422.021141
4439.663921
4433.358419
4465.720563
4464.544120
4440.923901
4446.095480
4472.269751
4439.248562
4437.317606
4441.559433
4453.627206
4443.019333
4276.249563
4427.744715
4428.565684
4429.659857
4428.484621
4431.705315
4429.668603
4428.490243
4426.658467
4429.112180
4425.997208
4426.739772
4427.991800
4431.113589
4427.725803
4427.787806
4424.527882
4424.481971
4372.311624
4376.882294
4400.274343
4443.867810
4412.635005
4435.306288
4441.501044
4441.569457
4429.339899
4401.270340
4449.627258
4440.391369
4426.592514
4385.045594
4404.921460