# vtk DataFile Version 2.0
mfree iwf
ASCII

DATASET UNSTRUCTURED_GRID
POINTS 8436 float
0.000001 0.000445 0.000000
0.000001 0.000450 0.000000
0.000001 0.000455 0.000000
0.000001 0.000460 0.000000
0.000001 0.000465 0.000000
0.000001 0.000470 0.000000
0.000001 0.000475 0.000000
0.000001 0.000480 0.000000
0.000001 0.000486 0.000000
0.000001 0.000490 0.000000
0.000001 0.000496 0.000000
0.000003 0.000500 0.000000
0.000098 0.000541 0.000000
0.000098 0.000550 0.000000
0.000098 0.000560 0.000000
0.000098 0.000569 0.000000
0.000098 0.000568 0.000000
0.000098 0.000575 0.000000
0.000098 0.000581 0.000000
0.000098 0.000588 0.000000
0.000098 0.000594 0.000000
0.000098 0.000599 0.000000
0.000098 0.000605 0.000000
0.000098 0.000610 0.000000
0.000099 0.000614 0.000000
0.000099 0.000620 0.000000
0.000100 0.000624 0.000000
0.000100 0.000630 0.000000
0.000101 0.000634 0.000000
0.000101 0.000640 0.000000
0.000102 0.000648 0.000000
0.000105 0.000676 0.000000
0.000006 0.000445 0.000000
0.000006 0.000450 0.000000
0.000006 0.000455 0.000000
0.000006 0.000460 0.000000
0.000006 0.000465 0.000000
0.000006 0.000470 0.000000
0.000006 0.000476 0.000000
0.000006 0.000480 0.000000
0.000006 0.000486 0.000000
0.000007 0.000490 0.000000
0.000005 0.000496 0.000000
0.000007 0.000499 0.000000
0.000101 0.000558 0.000000
0.000103 0.000564 0.000000
0.000102 0.000576 0.000000
0.000102 0.000582 0.000000
0.000102 0.000587 0.000000
0.000102 0.000593 0.000000
0.000102 0.000598 0.000000
0.000103 0.000604 0.000000
0.000104 0.000610 0.000000
0.000103 0.000616 0.000000
0.000104 0.000622 0.000000
0.000104 0.000628 0.000000
0.000106 0.000636 0.000000
0.000106 0.000642 0.000000
0.000106 0.000646 0.000000
0.000106 0.000651 0.000000
0.000105 0.000661 0.000000
0.000104 0.000665 0.000000
0.000104 0.000661 0.000000
0.000105 0.000672 0.000000
0.000011 0.000445 0.000000
0.000011 0.000450 0.000000
0.000010 0.000456 0.000000
0.000011 0.000460 0.000000
0.000011 0.000466 0.000000
0.000011 0.000470 0.000000
0.000011 0.000475 0.000000
0.000012 0.000480 0.000000
0.000010 0.000486 0.000000
0.000012 0.000490 0.000000
0.000010 0.000497 0.000000
0.000012 0.000498 0.000000
0.000108 0.000554 0.000000
0.000108 0.000560 0.000000
0.000104 0.000567 0.000000
0.000106 0.000573 0.000000
0.000106 0.000578 0.000000
0.000107 0.000583 0.000000
0.000107 0.000587 0.000000
0.000108 0.000595 0.000000
0.000108 0.000599 0.000000
0.000106 0.000605 0.000000
0.000109 0.000610 0.000000
0.000107 0.000616 0.000000
0.000110 0.000621 0.000000
0.000112 0.000627 0.000000
0.000108 0.000632 0.000000
0.000109 0.000640 0.000000
0.000109 0.000654 0.000000
0.000108 0.000659 0.000000
0.000107 0.000667 0.000000
0.000110 0.000673 0.000000
0.000015 0.000445 0.000000
0.000017 0.000450 0.000000
0.000015 0.000456 0.000000
0.000017 0.000460 0.000000
0.000015 0.000466 0.000000
0.000017 0.000470 0.000000
0.000015 0.000476 0.000000
0.000017 0.000480 0.000000
0.000015 0.000485 0.000000
0.000017 0.000489 0.000000
0.000015 0.000496 0.000000
0.000018 0.000498 0.000000
0.000026 0.000500 0.000000
0.000108 0.000568 0.000000
0.000110 0.000574 0.000000
0.000112 0.000579 0.000000
0.000114 0.000587 0.000000
0.000108 0.000591 0.000000
0.000113 0.000596 0.000000
0.000110 0.000604 0.000000
0.000114 0.000608 0.000000
0.000109 0.000615 0.000000
0.000115 0.000622 0.000000
0.000108 0.000625 0.000000
0.000112 0.000634 0.000000
0.000113 0.000639 0.000000
0.000113 0.000645 0.000000
0.000111 0.000649 0.000000
0.000113 0.000652 0.000000
0.000113 0.000661 0.000000
0.000112 0.000666 0.000000
0.000113 0.000673 0.000000
0.000020 0.000445 0.000000
0.000022 0.000450 0.000000
0.000020 0.000456 0.000000
0.000022 0.000460 0.000000
0.000020 0.000465 0.000000
0.000022 0.000470 0.000000
0.000020 0.000475 0.000000
0.000022 0.000480 0.000000
0.000020 0.000486 0.000000
0.000022 0.000490 0.000000
0.000022 0.000497 0.000000
0.000023 0.000499 0.000000
0.000040 0.000500 0.000000
0.000115 0.000564 0.000000
0.000118 0.000571 0.000000
0.000115 0.000575 0.000000
0.000112 0.000584 0.000000
0.000117 0.000583 0.000000
0.000115 0.000594 0.000000
0.000116 0.000600 0.000000
0.000115 0.000605 0.000000
0.000116 0.000612 0.000000
0.000119 0.000617 0.000000
0.000118 0.000626 0.000000
0.000116 0.000630 0.000000
0.000118 0.000635 0.000000
0.000117 0.000641 0.000000
0.000119 0.000651 0.000000
0.000115 0.000657 0.000000
0.000118 0.000663 0.000000
0.000116 0.000666 0.000000
0.000117 0.000672 0.000000
0.000025 0.000445 0.000000
0.000027 0.000450 0.000000
0.000025 0.000456 0.000000
0.000027 0.000459 0.000000
0.000025 0.000465 0.000000
0.000027 0.000470 0.000000
0.000025 0.000476 0.000000
0.000027 0.000480 0.000000
0.000025 0.000485 0.000000
0.000028 0.000489 0.000000
0.000027 0.000493 0.000000
0.000028 0.000500 0.000000
0.000100 0.000555 0.000000
0.000111 0.000563 0.000000
0.000113 0.000569 0.000000
0.000118 0.000578 0.000000
0.000121 0.000583 0.000000
0.000116 0.000590 0.000000
0.000122 0.000593 0.000000
0.000120 0.000600 0.000000
0.000120 0.000607 0.000000
0.000121 0.000611 0.000000
0.000115 0.000618 0.000000
0.000122 0.000622 0.000000
0.000119 0.000631 0.000000
0.000122 0.000642 0.000000
0.000118 0.000646 0.000000
0.000122 0.000647 0.000000
0.000119 0.000657 0.000000
0.000123 0.000657 0.000000
0.000122 0.000667 0.000000
0.000122 0.000672 0.000000
0.000031 0.000445 0.000000
0.000031 0.000450 0.000000
0.000030 0.000456 0.000000
0.000032 0.000461 0.000000
0.000029 0.000465 0.000000
0.000032 0.000469 0.000000
0.000030 0.000475 0.000000
0.000032 0.000480 0.000000
0.000031 0.000486 0.000000
0.000032 0.000491 0.000000
0.000034 0.000497 0.000000
0.000032 0.000499 0.000000
0.000050 0.000500 0.000000
0.000116 0.000559 0.000000
0.000123 0.000571 0.000000
0.000123 0.000576 0.000000
0.000123 0.000588 0.000000
0.000125 0.000589 0.000000
0.000123 0.000598 0.000000
0.000123 0.000604 0.000000
0.000126 0.000607 0.000000
0.000123 0.000617 0.000000
0.000127 0.000619 0.000000
0.000124 0.000629 0.000000
0.000127 0.000634 0.000000
0.000123 0.000637 0.000000
0.000126 0.000640 0.000000
0.000124 0.000651 0.000000
0.000128 0.000658 0.000000
0.000125 0.000662 0.000000
0.000126 0.000666 0.000000
0.000127 0.000671 0.000000
0.000036 0.000445 0.000000
0.000036 0.000450 0.000000
0.000038 0.000454 0.000000
0.000035 0.000458 0.000000
0.000036 0.000465 0.000000
0.000037 0.000471 0.000000
0.000034 0.000476 0.000000
0.000039 0.000481 0.000000
0.000035 0.000484 0.000000
0.000036 0.000489 0.000000
0.000039 0.000492 0.000000
0.000037 0.000498 0.000000
0.000098 0.000535 0.000000
0.000099 0.000553 0.000000
0.000124 0.000568 0.000000
0.000126 0.000578 0.000000
0.000125 0.000582 0.000000
0.000130 0.000588 0.000000
0.000127 0.000597 0.000000
0.000130 0.000601 0.000000
0.000126 0.000612 0.000000
0.000130 0.000612 0.000000
0.000125 0.000625 0.000000
0.000130 0.000624 0.000000
0.000129 0.000630 0.000000
0.000130 0.000642 0.000000
0.000128 0.000647 0.000000
0.000132 0.000651 0.000000
0.000128 0.000653 0.000000
0.000131 0.000660 0.000000
0.000131 0.000665 0.000000
0.000132 0.000671 0.000000
0.000041 0.000445 0.000000
0.000041 0.000450 0.000000
0.000039 0.000460 0.000000
0.000042 0.000457 0.000000
0.000041 0.000466 0.000000
0.000040 0.000470 0.000000
0.000043 0.000475 0.000000
0.000039 0.000477 0.000000
0.000042 0.000486 0.000000
0.000043 0.000491 0.000000
0.000043 0.000497 0.000000
0.000046 0.000498 0.000000
0.000098 0.000510 0.000000
0.000107 0.000557 0.000000
0.000126 0.000565 0.000000
0.000135 0.000574 0.000000
0.000130 0.000584 0.000000
0.000130 0.000593 0.000000
0.000133 0.000595 0.000000
0.000130 0.000604 0.000000
0.000133 0.000607 0.000000
0.000131 0.000616 0.000000
0.000133 0.000620 0.000000
0.000134 0.000627 0.000000
0.000132 0.000634 0.000000
0.000135 0.000637 0.000000
0.000133 0.000642 0.000000
0.000134 0.000647 0.000000
0.000134 0.000655 0.000000
0.000136 0.000660 0.000000
0.000136 0.000665 0.000000
0.000136 0.000671 0.000000
0.000045 0.000445 0.000000
0.000046 0.000450 0.000000
0.000046 0.000454 0.000000
0.000046 0.000461 0.000000
0.000046 0.000465 0.000000
0.000047 0.000469 0.000000
0.000047 0.000477 0.000000
0.000044 0.000481 0.000000
0.000050 0.000484 0.000000
0.000046 0.000487 0.000000
0.000049 0.000493 0.000000
0.000051 0.000498 0.000000
0.000098 0.000518 0.000000
0.000104 0.000547 0.000000
0.000118 0.000565 0.000000
0.000132 0.000579 0.000000
0.000134 0.000584 0.000000
0.000135 0.000591 0.000000
0.000135 0.000599 0.000000
0.000137 0.000605 0.000000
0.000136 0.000613 0.000000
0.000140 0.000617 0.000000
0.000136 0.000623 0.000000
0.000137 0.000632 0.000000
0.000138 0.000629 0.000000
0.000139 0.000641 0.000000
0.000139 0.000646 0.000000
0.000139 0.000650 0.000000
0.000140 0.000655 0.000000
0.000140 0.000660 0.000000
0.000141 0.000665 0.000000
0.000141 0.000670 0.000000
0.000050 0.000445 0.000000
0.000052 0.000450 0.000000
0.000049 0.000457 0.000000
0.000053 0.000458 0.000000
0.000050 0.000465 0.000000
0.000053 0.000471 0.000000
0.000049 0.000474 0.000000
0.000052 0.000479 0.000000
0.000050 0.000488 0.000000
0.000053 0.000491 0.000000
0.000059 0.000493 0.000000
0.000054 0.000498 0.000000
0.000098 0.000531 0.000000
0.000105 0.000545 0.000000
0.000114 0.000555 0.000000
0.000129 0.000574 0.000000
0.000138 0.000581 0.000000
0.000139 0.000590 0.000000
0.000141 0.000595 0.000000
0.000138 0.000600 0.000000
0.000142 0.000608 0.000000
0.000138 0.000612 0.000000
0.000141 0.000621 0.000000
0.000142 0.000625 0.000000
0.000143 0.000634 0.000000
0.000141 0.000637 0.000000
0.000144 0.000642 0.000000
0.000144 0.000647 0.000000
0.000144 0.000653 0.000000
0.000145 0.000659 0.000000
0.000146 0.000665 0.000000
0.000146 0.000670 0.000000
0.000055 0.000445 0.000000
0.000057 0.000450 0.000000
0.000055 0.000454 0.000000
0.000057 0.000461 0.000000
0.000055 0.000465 0.000000
0.000058 0.000469 0.000000
0.000056 0.000475 0.000000
0.000059 0.000482 0.000000
0.000055 0.000483 0.000000
0.000057 0.000487 0.000000
0.000057 0.000497 0.000000
0.000061 0.000497 0.000000
0.000101 0.000536 0.000000
0.000103 0.000549 0.000000
0.000111 0.000552 0.000000
[...]
POINT_DATA 8436
SCALARS density float 1
LOOKUP_TABLE default
4424.784958
4428.500566
4425.403183
4422.762278
4425.538400
4426.580405
4435.769176
4431.593824
4443.239498
4424.996523
4434.376843
4397.482665
4607.941573
4467.117673
4601.721396
4494.382412
4481.020029
4524.349021
4526.636644
4480.444844
4481.055998
4435.446512
4422.596076
4429.990410
4428.530615
4444.982268
4425.995819
4425.617701
4443.150245
4421.629339
4446.729463
4417.522970
4426.962505
4425.520844
4424.456634
4427.039626
4436.770000
4420.379513
4422.858990
4423.077152
4407.336513
4417.451773
4445.841349
4398.076085
4439.192375
4429.262876
4403.926097
4403.413113
4409.503377
4420.549190
4419.932624
4413.306165
4400.479562
4361.049935
4391.162766
4406.836486
4402.924336
4409.070144
4406.660465
4385.681164
4444.370401
4396.114327
4447.961480
4460.740304
4424.034871
4420.002610
4438.710629
4418.581810
4433.743373
4409.672187
4455.224056
4386.732691
4477.349892
4364.785589
4479.818263
4406.271772
4442.896748
4481.756335
4481.265101
4452.099881
4467.103372
4461.448609
4463.161828
4429.107824
4422.406231
4449.829925
4396.456625
4495.572709
4389.082613
4422.763619
4436.661417
4454.622781
4396.307850
4464.929651
4411.279938
4427.255643
4426.956872
4434.206903
4432.822188
4434.302130
4440.123205
4421.961277
4452.981394
4386.908540
4471.600916
4379.535177
4518.879198
4395.829906
4431.013406
4453.118874
4446.308427
4428.338612
4424.632897
4425.071891
4430.974083
4431.051688
4458.200775
4445.763417
4424.569807
4454.620179
4357.962635
4481.064195
4359.493039
4519.036190
4448.785803
4389.136021
4449.996419
4433.299691
4427.770758
4438.349429
4433.063172
4426.050163
4436.856222
4431.876139
4432.110059
4436.801424
4470.585835
4357.136307
4474.191556
4425.977047
4410.596771
4440.623552
4461.331841
4469.857692
4438.599978
4476.541751
4477.338274
4397.513175
4447.311843
4379.595422
4471.147632
4431.018728
4440.440508
4427.511616
4444.551985
4405.967588
4402.783859
4440.865969
4429.632068
4432.796531
4432.178760
4441.734714
4441.609113
4425.611549
4443.867222
4425.128593
4440.850677
4417.807458
4411.633790
4478.944088
4434.844241
4422.181361
4426.722289
4469.261957
4456.631986
4442.264273
4454.116929
4419.825189
4423.115333
4445.086820
4435.635969
4436.009590
4407.784697
4416.791741
4450.401850
4436.875583
4385.000628
4466.017307
4453.040127
4423.501055
4416.244298
4432.219546
4435.854395
4429.245107
4412.242833
4415.311312
4445.031441
4408.277782
4448.532667
4417.843872
4433.202693
4379.131901
4473.454910
4412.203165
4426.472618
4435.950790
4455.178089
4466.156601
4456.148027
4469.969344
4471.861223
4422.496099
4433.382016
4408.063992
4439.931587
4403.533914
4429.796928
4414.596255
4416.451623
4433.719855
4423.211219
4421.338638
4432.782409
4427.181314
4437.634203
4439.307360
4406.084179
4454.023248
4436.648263
4435.281017
4428.031235
4413.423655
4435.422022
4423.330727
4433.053241
4446.619734
4569.898697
4403.215574
4432.663471
4480.342122
4446.540759
4455.251011
4449.060213
4442.348562
4432.566315
4461.747396
4458.946691
4427.961478
4427.740638
4446.997862
4403.438569
4431.254039
4410.895398
4417.895552
4435.816882
4426.757183
4428.842612
4421.895299
4427.463177
4426.205980
4437.485605
4434.815907
4433.555474
4414.241065
4455.666931
4403.049301
4437.456748
4423.560390
4878.747198
4454.073281
4474.103667
4452.359618
4470.130036
4463.015326
4471.912492
4458.997338
4440.393518
4450.138088
4430.236637
4429.245972
4416.835103
4404.209362
4444.456334
4428.830536
4427.351915
4429.334867
4407.757898
4432.239061
4433.820008
4430.743521
4427.808968
4425.405533
4440.921076
4414.039986
4441.954553
4410.356814
4444.807191
4414.423622
4465.261294
4442.602584
4561.322158
4475.334826
4456.105146
4454.820445
4472.702384
4456.005785
4458.427373
4457.754322
4444.014485
4442.774741
4445.544115
4453.819061
4442.301434
4427.226714
4420.338763
4430.274643
4417.571199
4441.126350
4429.906188
4414.723103
4430.454487
4425.480601
4427.667253
4426.695150
4415.949984
4421.682432
4449.310484
4398.709326
4437.600770
4417.327728
4548.737470
4398.624176
4394.626869
4467.677995
4444.724549
4452.509064
4442.783986
4453.678606
4453.964367
4455.558972
4453.520424
4445.782321
4444.210211
4420.845317
4428.103507
4454.370266
4443.017635
4433.310125
4432.398315
4412.354103
4425.334938
4415.753707
4433.897334
4422.324355
4439.496524
4425.585859
4428.582102
4431.838939
4427.942375
4407.584458
4480.835031
4384.532945
4395.571411
4399.262693
4429.287724
4493.653478
4481.876305
4456.268583
4451.667674
4469.218716
4445.740556
4464.613219
4453.244303
4446.643242
4447.945065
4440.842960
4460.363935
4421.226758
4438.425504
4422.878207
4443.643526
4424.298864
4417.135805
4424.952209
4428.032080
4408.436619
4429.070557
4427.340035
4421.959400
4417.614051
4432.414725
4413.854784
4469.681210
4400.421983
4446.759149
4435.174953
4407.118683
4459.962384
4462.031074
4429.092257
4443.061412
4438.067944
4478.764228
4450.102445
4451.026346
4454.056931
4451.288097
4447.776593
4436.164440
4427.544125
4447.637391
4448.059659
4417.217208
4419.398445
4414.603292
4416.319932
4443.106200
4434.651914
4427.371807
4423.271546
4442.219054
4427.955580
4454.670060
4428.973396
4423.652431
4395.230235
4452.101209
4432.029977
4653.185954
4478.979234
4420.724819
4448.157315
4438.712742
4452.725216
4453.953747
4479.678045
4471.582878
4454.863324
4443.927598
4438.626729
4429.924074
4454.425596
4417.869195
4434.528007
4442.886105
4419.415148
4422.372507
4415.380465
4420.498751
4426.953040
4426.202531
4420.880182
4424.171000
4426.388379
4415.628064
4417.364805
4407.622932
4463.349880
4442.490639
4449.084468
4530.889046
4443.947638
4478.985173
4486.967750
4460.632624
4465.268113
4472.197985
4461.226383
4454.577517
4452.704194
4451.824654
4459.574223
4452.277169
4437.548472
4431.766780
4432.057904
4435.745296
4402.994443
4419.732578
4416.603529
4446.392597
4440.116969
4424.189151
4440.621236
4428.895834
4410.657634
4437.521355
4422.355832
4438.721200
4339.605917
4462.708037
4457.183432
4441.011890
4559.936915
4480.148199
4481.019896
4415.548821
4427.050955
4454.067607
4426.273382
4466.974374
4459.347038
4455.040244
4434.173432
4447.318030
4427.952472
4450.949981
4407.962717
4422.624111
4423.088818
4414.508326
4412.608270
4421.571600
4428.389035
4424.856683
4431.556056
4425.109251
4445.870031
4449.106355
4417.120710
4459.054295
4481.034272
4411.769339
4419.836695
4501.104792
4368.999389
4532.974098
4528.893278
4430.009115
4446.600105
4435.786053
4468.092868
4455.613567
4435.426967
4470.541570
4469.541271
4446.608001
4428.387379
4436.750073
4437.146092
4444.041366
4418.706233
4415.593898
4413.261715
4442.992064
4443.629073
4445.323568
4426.156302
4432.605993
4425.793137
4409.375931
4461.201922
4385.232574
4470.987331
4399.871955
4460.138021
4446.202071
4462.967765
4506.900770
4462.982373
4459.586172
4408.833107
4470.918362
4450.595803
4479.350765
4488.638587
4439.132684
4461.869933
4457.675875
4446.295950
4427.190715
4435.895352
4421.643917
4413.670845
4419.137278
4412.890208
4423.893552
4433.723385
4430.558019
4437.904600
4427.946615
4437.680795
4453.422719
4437.821563
4453.236906
4450.950312
4394.134576
4456.774417
4415.612070
4529.073014
4471.011296
4498.220169
4466.448719
4463.552000
4466.976924
4458.518148
4425.488704
4418.206246
4462.462749
4459.996339
4437.123429
4450.798539
4442.400647
4429.941754
4427.919028
4424.797541
4410.564717
4410.081481
4445.668155
4432.961809
4429.333061
4436.086682
4424.151749
4451.392618
4399.514796
4459.904673
4432.799812
4443.932721
4486.819657
4443.160227
4561.325463
4511.531468
4485.684602
4501.589759
4496.136563
4484.274641
4399.152162
4397.791402
4405.894031
4458.084373
4441.717286
4456.080636
4444.586338
4453.345067
4440.995932
4443.086198
4425.268903
4418.195569
4413.750213
4412.612997
4412.149448
4428.312414
4417.814116
4435.249053
4399.741014
4424.526825
4439.763730
4434.814269
4415.658296
4482.813113
4494.703042
4425.489032
4458.460952
4477.089152
4465.462769
4484.450076
4497.429261
4464.650506
4495.134846
4475.048455
4427.810161
4450.106427
4444.827177
4435.456969
4463.692214
4460.794559
4448.316241
4431.190667
4434.705326
4408.015473
4418.873438
4412.626704
4445.768232
4436.873960
4441.615105
4438.022566
4425.466560
4437.468332
4408.933066
4429.593398
4429.040765
4439.235950
4475.520961
4450.337492
4465.492655
4476.662487
4491.614151
4474.113461
4479.656077
4494.967262
4453.517787
4411.211261
4422.727928
4413.765753
4465.368569
4451.463167
4460.859253
4430.597610
4455.646906
4437.275047
4441.009394
4411.518923
4417.900582
4410.361564
4419.006541
4433.573206
4423.469647
4429.382734
4429.408257
4423.431894
4446.907863
4426.536347
4456.831305
4447.614153
4467.789963
4451.670677
4456.372131
4485.319322
4485.226276
4475.521212
4474.683553
4482.254068
4447.414070
4478.775535
4416.837231
4443.622857
4407.573680
4437.859734
4470.395777
4450.226520
4455.371674
4443.779420
4429.517283
4416.294316
4412.208379
4409.640094
4445.517324
4440.701688
4428.103857
4427.103588
4412.451554
4437.155710
4418.708458
4428.268840
4440.886195
4443.518454
4448.826774
4466.689175
4469.124702
4455.300300
4463.537871
4492.838389
4472.805943
4449.493746
4440.955193
4450.928555
4413.901993
4461.162285
4404.112885
4450.700219
4423.550355
4466.702480
4436.097802
4463.582341
4427.555618
4430.864530
4418.810207
4408.023615
4405.518223
4425.810387
4424.994347
4425.748059
4426.620016
4426.797137
4427.374761
4427.616342
4428.029732
4428.205746
4428.587473
4428.516312
4428.696483
4428.387443
4428.889596
4411.114835
4423.568779
4423.281345
4424.633510
4425.520285
4425.966848
4426.771737
4426.921562
4427.637404
4427.761776
4428.264337
4428.391654
4428.557042
4428.236441
4431.320105
4415.942441
4423.985605
4422.947616
4424.797009
4425.591223
4426.031692
4426.907283
4427.026160
4427.904126
4427.677778
4428.706615
4428.230299
4428.937385
4429.415045
4430.090738
4418.811522
4424.911149
4424.003323
4425.384884
4425.785133
4426.557658
4427.086790
4427.335982
4428.109056
4428.051380
4428.936512
4428.610857
4430.066764
4429.433137
4431.889827
4421.893916
4425.484592
4425.170486
4425.739809
4426.516824
4426.721225
4427.498057
4427.668696
4428.358176
4428.368283
4429.158505
4428.911758
4430.107998
4429.166026
4432.171033
4423.423072
4426.268256
4426.069214
4426.195976
4427.219187
4426.978256
4428.149566
4427.747736
4428.898329
4428.512714
4429.663467
4429.221631
4430.226040
4429.432683
4430.630296
4424.910064
4426.978310
4426.727408
4426.950964
4427.539230
4427.553993
4428.333141
4428.216249
4429.177994
4428.871699
4429.890779
4429.517942
4430.333123
4429.321923
4430.506057
4426.139396
4427.618581
4427.346579
4427.553016
4427.978655
4428.099308
4428.608628
4428.783223
4429.228594
4429.439865
4430.159899
4429.893357
4431.439703
4429.667362
4430.743322
4427.093106
4428.079471
4427.975926
4428.008509
4428.435958
4428.439177
4429.014999
4428.933402
4429.749978
4429.637082
4430.453635
4430.517089
4431.161918
4431.482151
4430.976722
4428.080415
4428.552553
4428.473893
4428.492665
4428.845632
4428.853552
4429.281584
4429.445918
4429.829696
4430.056813
4430.713161
4431.077682
4431.917025
4432.252779
4431.748987
4428.653149
4429.010759
4428.812251
4429.007699
4429.043157
4429.305968
4429.430887
4429.745902
4429.929285
4430.511694
4430.689205
4431.303505
4432.062523
4432.482037
4433.154879
4429.324579
4429.363633
4429.145266
4429.414592
4429.309628
4429.672348
4429.628664
4430.027031
4430.237154
4430.379580
4431.076547
4431.338785
4432.223211
4432.609891
4432.516178
4429.874884
4429.584932
4429.609527
4429.602198
4429.675416
4429.817405
4429.887427
4430.186305
4430.239162
4430.743032
4430.917738
4431.188447
4431.744681
4432.750534
4431.905863
4442.165278
4419.396442
4442.784795
4438.209367
4449.704839
4455.980530
4446.267670
4461.861572
4476.327942
4462.363056
4477.525795
4450.961618
4439.442794
4460.405313
4394.293960
4407.401609
4430.302128
4429.822844
4429.867933
4429.873084
4429.927194
4430.027680
4430.123355
4430.297993
4430.456917
4430.686004
4430.706518
4431.558428
4431.101633
4432.248376
4432.517566
4430.911053
4437.372790
4448.882280
4414.461622
4428.468754
4449.161370
4465.230065
4447.364043
4469.036295
4440.414101
4428.587651
4463.485713
4337.906790
4482.642602
4414.486793
4407.945902
4430.587105
4430.032487
4430.134073
4430.114098
4430.062432
4430.302374
4430.176773
4430.477676
4430.497752
4430.676886
4431.005122
4430.725680
4430.985788
4430.970723
4429.288532
4432.870054
4442.740932
4412.068572
4430.149948
4440.386388
4433.555490
4421.543886
4443.032219
4464.241921
4467.551634
4440.796357
4415.511942
4432.340564
4474.842095
4434.792389
4408.014267
4430.851662
4430.253730
4430.265766
4430.333378
4430.253406
4430.468972
4430.295822
4430.707977
4430.477785
4430.870620
4430.712920
4431.037842
4431.004589
4430.330823
4431.028211
4410.191687
4419.666427
4416.085389
4461.010325
4432.212747
4414.912212
4453.152854
4467.274290
4470.041138
4449.481920
4463.499829
4463.904626
4398.965618
4436.183308
4458.378141
4407.833419
4431.039684
4430.394173
4430.447649
4430.554690
4430.316635
4430.674275
4430.425685
4430.740993
4430.583805
4430.991688
4430.579244
4431.261836
4429.995095
4430.948818
4429.062126
4431.297739
4417.279492
4443.684470
4430.856921
4452.004318
4442.989944
4452.353826
4452.294448
4465.383629
4460.542235
4441.102040
4456.165508
4452.986274
4382.019006
4495.050793
4409.845940
4431.154329
4430.511967
4430.574321
4430.646022
4430.509161
4430.804639
4430.490809
4430.973475
4430.669685
4430.946971
4431.050416
4430.807211
4431.594554
4431.879735
4430.220973
4422.624521
4447.090602
4394.601897
4433.685646
4428.142415
4407.188808
4444.169171
4433.711263
4455.463754
4452.789968
4458.496255
4457.111193
4447.836728
4422.794186
4435.179577
4412.468105
4431.220235
4430.596036
4430.715576
4430.753141
4430.656634
4430.832715
4430.760768
4430.911816
4430.835651
4431.169365
4430.774613
4431.766496
4430.328664
4431.990900
4434.235451
4443.254785
4417.160794
4428.486324
4458.235290
4459.240358
4439.038489
4444.000449
4450.976581
4444.588479
4433.131905
4448.443151
4422.635796
4450.104895
4415.919203
4456.483769
4375.700757
4431.285339
4430.635358
4430.819005
4430.821091
4430.776121
4430.982786
4430.794233
4431.109706
4430.943063
4431.191117
4431.264909
4431.163846
4432.348033
4432.170097
4430.760037
4427.858130
4429.069943
4428.647395
4419.817001
4422.912757
4440.059427
4405.617314
4417.274905
4437.511706
4458.123836
4457.943518
4420.827964
4453.695865
4453.121669
4431.376916
4483.768889
4431.384378
4430.620556
4431.025377
4430.823625
4430.960339
4430.974974
4430.999168
4431.129913
4431.132656
4431.150262
4431.495830
4431.568352
4431.490105
4432.383894
4434.010071
4433.019174
4428.053969
4437.119411
4430.325562
4431.957569
4417.407984
4426.186567
4428.346922
4407.285876
4425.498518
4387.724061
4426.407329
4457.302753
4453.642279
4422.786947
4454.532547
4431.461748
4430.634729
4431.127346
4430.835273
4431.147213
4430.945101
4431.254003
4431.026926
4431.330095
4431.373395
4431.247752
4431.694594
4432.106121
4432.406363
4434.308439
4417.190191
4406.875110
4417.318233
4430.526872
4428.973513
4429.000994
4395.604291
4410.437338
4415.755646
4377.650847
4405.496550
4416.003643
4460.483348
4479.846186
4374.357270
4457.809517
4431.552509
4430.646433
4431.268255
4430.870900
4431.220189
4431.064597
4431.200231
4431.296434
4431.323749
4431.187643
4431.750536
4431.341973
4431.247072
4431.833776
4430.376196
4422.977782
4406.563026
4413.985467
4467.697745
4416.649466
4440.131516
4414.848825
4430.763360
4425.819267
4427.816959
4439.357619
4407.301756
4440.441037
4443.518830
4446.026996
4391.252981
4431.582266
4430.699943
4431.281306
4430.953277
4431.267230
4431.119480
4431.354274
4431.195297
4431.444738
4431.508266
4431.277017
4431.616197
4431.365471
4431.221995
4432.092083
4430.172538
4449.239018
4434.205227
4453.754543
4447.008630
4451.386866
4428.935097
4427.280532
4435.195091
4440.049013
4465.594682
4443.990886
4480.855358
4498.476133
4496.613329
4457.978890
4431.585975
4430.813938
4431.279866
4431.058243
4431.305142
4431.185542
4431.341401
4431.403694
4431.421120
4431.412018
4431.578672
4431.526530
4431.258685
4431.084069
4430.276190
4425.246352
4433.703627
4422.528220
4422.564813
4428.585587
4433.708497
4450.268070
4447.105555
4447.960329
4430.343035
4452.634181
4462.790931
4439.042502
4461.104865
4453.856079
4450.805659
4431.581744
4430.917098
4431.221305
4431.186020
4431.233898
4431.397531
4431.287585
4431.471112
4431.492853
4431.523236
4431.720113
4431.380752
4432.033891
4431.803156
4431.812910
4431.852884
4449.564927
4433.343956
4423.361832
4436.017014
4442.888234
4450.893660
4415.517056
4393.427373
4459.982298
4452.014684
4459.403024
4438.906399
4449.939982
4453.420111
4450.581270
4431.628756
4430.981479
4431.239985
4431.282780
4431.267071
4431.421673
4431.356289
4431.590559
4431.444456
4431.777238
4431.352673
4432.237762
4431.257005
4432.407171
4433.464434
4437.579898
4423.865795
4434.142275
4443.786576
4424.710244
4435.782533
4448.714571
4421.098569
4442.624821
4435.519239
4426.039369
4449.070000
4450.774320
4460.933238
4458.310601
4453.404365
4431.645195
4430.974096
4431.336200
4431.229627
4431.397815
4431.443263
4431.416853
4431.609115
4431.564264
4431.730858
4431.896960
4431.661141
4432.358801
4432.559665
4431.431675
4446.102239
4439.299256
4435.516742
4450.285168
4453.027386
4449.735001
4414.119496
4432.060586
4443.779523
4455.087963
4446.578549
4446.743894
4449.716456
4448.569299
4451.485060
4450.970274
4431.787769
4430.892874
4431.554778
4431.132258
4431.602784
4431.318216
4431.687552
4431.429694
4431.908888
4431.545814
4432.086928
4432.024265
4432.472144
4432.157784
4435.023809
4415.193676
4441.079218
4426.823814
4436.050479
4434.551461
4435.519326
4426.468424
4413.518469
4415.942099
4437.799478
4441.606991
4428.948700
4452.051794
4457.730290
4462.485225
4451.268102
4431.844594
4430.895200
4431.630595
4431.162833
4431.696405
4431.313224
4431.792269
4431.458528
4431.903957
4431.692722
4432.072164
4431.951728
4432.555826
4432.322411
4434.065639
4425.985967
4440.263905
4413.449080
4441.608526
4412.574162
4425.759043
4426.995350
4433.359788
4431.216831
4453.014416
4445.094599
4443.144709
4439.746298
4429.692530
4459.883376
4448.163997
4431.865096
4431.064390
4431.569253
4431.341168
4431.579410
4431.574011
4431.643287
4431.677037
4431.821819
4431.734501
4432.094082
4431.849090
4432.362649
4432.882797
4431.863258
4419.989944
4432.188143
4418.873749
4427.461799
4414.663753
4449.064240
4406.594985
4413.706180
4442.115762
4448.830611
4462.273232
4452.203597
4450.196809
4468.321871
4459.182513
4452.985397
4431.828879
4431.162252
4431.492673
4431.488653
4431.557918
4431.663203
4431.646524
4431.786253
4431.756855
4431.938163
4431.666567
4432.328764
4431.314199
4432.530671
4432.769733
4439.440603
4449.656664
4424.172223
4411.760348
4442.460110
4436.767231
4433.481668
4450.418697
4440.491947
4424.784558
4430.621442
4461.427328
4453.514499
4446.944139
4468.162363
4446.376238
4431.914778
4431.213735
4431.575188
4431.555522
4431.571682
4431.773265
4431.667452
4431.887420
4431.698202
4432.036156
4431.751930
4431.702122
4432.083058
4431.746490
4430.714237
4430.226263
4430.293311
4423.771923
4400.227532
4408.907484
4395.518423
4435.387973
4432.433995
4424.511789
4442.340671
4441.860517
4449.499057
4450.096710
4461.606095
4460.769592
4452.057708
4431.962084
4431.283582
4431.554466
4431.688551
4431.560081
4431.891542
4431.669420
4431.956298
4431.874369
4431.798642
4431.898091
4431.853022
4431.384564
4431.091144
4431.274571
4434.386814
4429.453141
4435.389563
4409.820002
4403.037478
4408.912790
4436.374442
4451.586409
4435.207965
4442.187648
4428.113369
4451.657133
4436.828310
4442.193937
4447.303048
4447.294847
4431.991124
4431.340004
4431.596633
4431.731646
4431.638770
4431.918217
4431.803238
4432.014962
4431.774277
4432.283969
4431.604842
4431.972149
4431.496863
4431.193871
4430.761722
4436.954003
4420.803533
4426.839738
4426.071511
4415.145634
4424.691152
4450.431262
4444.350874
4455.501201
4418.058764
4440.254056
4437.368486
4434.963840
4443.810045
4448.153595
4446.789434