# vtk DataFile Version 2.0
mfree iwf
ASCII

DATASET UNSTRUCTURED_GRID
POINTS 11907 float
-0.000000 0.000445 0.000000
-0.000000 0.000450 0.000000
-0.000000 0.000455 0.000000
-0.000000 0.000460 0.000000
-0.000000 0.000465 0.000000
-0.000000 0.000470 0.000000
-0.000000 0.000475 0.000000
-0.000000 0.000480 0.000000
-0.000000 0.000485 0.000000
0.000000 0.000490 0.000000
-0.000001 0.000496 0.000000
0.000002 0.000500 0.000000
0.001296 0.001057 0.000000
0.001304 0.001054 0.000000
0.001346 0.001032 0.000000
0.001350 0.001028 0.000000
0.001350 0.001028 0.000000
0.001356 0.001025 0.000000
0.001362 0.001020 0.000000
0.001358 0.001023 0.000000
0.001370 0.001015 0.000000
0.001392 0.001000 0.000000
0.001396 0.000994 0.000000
0.001399 0.000990 0.000000
0.001402 0.000986 0.000000
0.001405 0.000982 0.000000
0.001407 0.000978 0.000000
0.001410 0.000974 0.000000
0.001412 0.000970 0.000000
0.001416 0.000965 0.000000
0.001419 0.000960 0.000000
0.001436 0.000946 0.000000
0.000005 0.000445 0.000000
0.000005 0.000450 0.000000
0.000005 0.000455 0.000000
0.000005 0.000460 0.000000
0.000005 0.000465 0.000000
0.000005 0.000470 0.000000
0.000005 0.000475 0.000000
0.000005 0.000480 0.000000
0.000005 0.000485 0.000000
0.000006 0.000489 0.000000
0.000003 0.000496 0.000000
0.000006 0.000498 0.000000
0.001341 0.001033 0.000000
0.001343 0.001024 0.000000
0.001375 0.001009 0.000000
0.001380 0.001006 0.000000
0.001385 0.001002 0.000000
0.001387 0.001000 0.000000
0.001389 0.000998 0.000000
0.001391 0.000994 0.000000
0.001393 0.000990 0.000000
0.001397 0.000985 0.000000
0.001402 0.000978 0.000000
0.001404 0.000974 0.000000
0.001407 0.000968 0.000000
0.001413 0.000961 0.000000
0.001415 0.000957 0.000000
0.001419 0.000953 0.000000
0.001428 0.000947 0.000000
0.001430 0.000946 0.000000
0.001426 0.000950 0.000000
0.001434 0.000944 0.000000
0.000010 0.000445 0.000000
0.000010 0.000450 0.000000
0.000010 0.000455 0.000000
0.000010 0.000460 0.000000
0.000010 0.000465 0.000000
0.000010 0.000469 0.000000
0.000010 0.000475 0.000000
0.000010 0.000479 0.000000
0.000009 0.000486 0.000000
0.000012 0.000489 0.000000
0.000008 0.000497 0.000000
0.000011 0.000498 0.000000
0.001339 0.001030 0.000000
0.001346 0.001021 0.000000
0.001361 0.001016 0.000000
0.001368 0.001012 0.000000
0.001372 0.001010 0.000000
0.001377 0.001007 0.000000
0.001366 0.001006 0.000000
0.001373 0.001001 0.000000
0.001379 0.000998 0.000000
0.001384 0.000994 0.000000
0.001391 0.000986 0.000000
0.001395 0.000982 0.000000
0.001394 0.000975 0.000000
0.001398 0.000972 0.000000
0.001402 0.000970 0.000000
0.001410 0.000963 0.000000
0.001421 0.000951 0.000000
0.001422 0.000949 0.000000
0.001426 0.000942 0.000000
0.001426 0.000936 0.000000
0.000015 0.000445 0.000000
0.000016 0.000450 0.000000
0.000014 0.000456 0.000000
0.000017 0.000460 0.000000
0.000014 0.000469 0.000000
0.000016 0.000465 0.000000
0.000014 0.000476 0.000000
0.000017 0.000480 0.000000
0.000014 0.000484 0.000000
0.000016 0.000489 0.000000
0.000014 0.000495 0.000000
0.000016 0.000497 0.000000
0.000025 0.000500 0.000000
0.001350 0.001021 0.000000
0.001364 0.001013 0.000000
0.001357 0.001011 0.000000
0.001370 0.001004 0.000000
0.001380 0.001003 0.000000
0.001379 0.000995 0.000000
0.001386 0.000989 0.000000
0.001382 0.000988 0.000000
0.001387 0.000984 0.000000
0.001393 0.000969 0.000000
0.001398 0.000978 0.000000
0.001401 0.000963 0.000000
0.001406 0.000964 0.000000
0.001406 0.000959 0.000000
0.001409 0.000957 0.000000
0.001413 0.000951 0.000000
0.001416 0.000948 0.000000
0.001419 0.000943 0.000000
0.001425 0.000934 0.000000
0.000019 0.000445 0.000000
0.000021 0.000450 0.000000
0.000018 0.000455 0.000000
0.000022 0.000459 0.000000
0.000019 0.000469 0.000000
0.000024 0.000467 0.000000
0.000018 0.000475 0.000000
0.000022 0.000479 0.000000
0.000019 0.000486 0.000000
0.000021 0.000490 0.000000
0.000020 0.000497 0.000000
0.000022 0.000499 0.000000
0.000039 0.000500 0.000000
0.001343 0.001010 0.000000
0.001352 0.001015 0.000000
0.001358 0.001006 0.000000
0.001364 0.001009 0.000000
0.001373 0.000997 0.000000
0.001370 0.000992 0.000000
0.001381 0.000984 0.000000
0.001373 0.000990 0.000000
0.001384 0.000979 0.000000
0.001382 0.000970 0.000000
0.001386 0.000966 0.000000
0.001392 0.000963 0.000000
0.001400 0.000958 0.000000
0.001403 0.000948 0.000000
0.001410 0.000948 0.000000
0.001411 0.000944 0.000000
0.001419 0.000938 0.000000
0.001422 0.000939 0.000000
0.001420 0.000932 0.000000
0.000024 0.000445 0.000000
0.000026 0.000450 0.000000
0.000024 0.000455 0.000000
0.000026 0.000461 0.000000
0.000021 0.000465 0.000000
0.000026 0.000473 0.000000
0.000022 0.000476 0.000000
0.000027 0.000481 0.000000
0.000023 0.000485 0.000000
0.000026 0.000488 0.000000
0.000026 0.000492 0.000000
0.000027 0.000500 0.000000
0.001323 0.001045 0.000000
0.001352 0.001018 0.000000
0.001356 0.001016 0.000000
0.001368 0.000999 0.000000
0.001364 0.001001 0.000000
0.001378 0.000991 0.000000
0.001375 0.000985 0.000000
0.001366 0.000995 0.000000
0.001372 0.000982 0.000000
0.001390 0.000980 0.000000
0.001388 0.000973 0.000000
0.001388 0.000976 0.000000
0.001398 0.000968 0.000000
0.001397 0.000962 0.000000
0.001407 0.000952 0.000000
0.001402 0.000954 0.000000
0.001414 0.000940 0.000000
0.001406 0.000943 0.000000
0.001415 0.000935 0.000000
0.001416 0.000928 0.000000
0.000030 0.000445 0.000000
0.000031 0.000450 0.000000
0.000029 0.000455 0.000000
0.000031 0.000459 0.000000
0.000031 0.000464 0.000000
0.000028 0.000468 0.000000
0.000031 0.000472 0.000000
0.000030 0.000477 0.000000
0.000030 0.000486 0.000000
0.000031 0.000492 0.000000
0.000033 0.000497 0.000000
0.000030 0.000499 0.000000
0.000048 0.000500 0.000000
0.001341 0.001018 0.000000
0.001351 0.001005 0.000000
0.001359 0.001002 0.000000
0.001356 0.001001 0.000000
0.001361 0.000997 0.000000
0.001366 0.000984 0.000000
0.001378 0.000973 0.000000
0.001379 0.000981 0.000000
0.001381 0.000975 0.000000
0.001389 0.000968 0.000000
0.001389 0.000955 0.000000
0.001393 0.000959 0.000000
0.001395 0.000954 0.000000
0.001398 0.000945 0.000000
0.001399 0.000951 0.000000
0.001404 0.000938 0.000000
0.001409 0.000938 0.000000
0.001412 0.000932 0.000000
0.001413 0.000926 0.000000
0.000035 0.000445 0.000000
0.000035 0.000450 0.000000
0.000034 0.000457 0.000000
0.000038 0.000454 0.000000
0.000035 0.000467 0.000000
0.000036 0.000472 0.000000
0.000032 0.000479 0.000000
0.000041 0.000479 0.000000
0.000034 0.000483 0.000000
0.000034 0.000488 0.000000
0.000037 0.000491 0.000000
0.000036 0.000498 0.000000
0.001283 0.001059 0.000000
0.001319 0.001047 0.000000
0.001348 0.001009 0.000000
0.001351 0.000999 0.000000
0.001364 0.000990 0.000000
0.001353 0.000990 0.000000
0.001371 0.000987 0.000000
0.001368 0.000980 0.000000
0.001375 0.000978 0.000000
0.001366 0.000971 0.000000
0.001373 0.000962 0.000000
0.001384 0.000957 0.000000
0.001388 0.000960 0.000000
0.001391 0.000951 0.000000
0.001402 0.000943 0.000000
0.001391 0.000936 0.000000
0.001403 0.000931 0.000000
0.001406 0.000935 0.000000
0.001409 0.000929 0.000000
0.001408 0.000923 0.000000
0.000040 0.000445 0.000000
0.000041 0.000450 0.000000
0.000036 0.000461 0.000000
0.000040 0.000458 0.000000
0.000041 0.000463 0.000000
0.000039 0.000468 0.000000
0.000041 0.000473 0.000000
0.000037 0.000477 0.000000
0.000041 0.000488 0.000000
0.000042 0.000491 0.000000
0.000041 0.000497 0.000000
0.000044 0.000498 0.000000
0.001128 0.001037 0.000000
0.001339 0.001026 0.000000
0.001340 0.001015 0.000000
0.001346 0.000997 0.000000
0.001359 0.000992 0.000000
0.001358 0.000987 0.000000
0.001362 0.000986 0.000000
0.001371 0.000974 0.000000
0.001376 0.000966 0.000000
0.001382 0.000966 0.000000
0.001373 0.000971 0.000000
0.001373 0.000951 0.000000
0.001382 0.000948 0.000000
0.001387 0.000944 0.000000
0.001394 0.000949 0.000000
0.001392 0.000944 0.000000
0.001398 0.000939 0.000000
0.001399 0.000934 0.000000
0.001404 0.000926 0.000000
0.001404 0.000920 0.000000
0.000044 0.000445 0.000000
0.000046 0.000450 0.000000
0.000044 0.000455 0.000000
0.000046 0.000461 0.000000
0.000044 0.000467 0.000000
0.000046 0.000473 0.000000
0.000046 0.000478 0.000000
0.000039 0.000483 0.000000
0.000051 0.000485 0.000000
0.000045 0.000483 0.000000
0.000048 0.000493 0.000000
0.000050 0.000498 0.000000
0.001135 0.001040 0.000000
0.001337 0.001035 0.000000
0.001353 0.001009 0.000000
0.001355 0.000995 0.000000
0.001351 0.000993 0.000000
0.001363 0.000979 0.000000
0.001359 0.000976 0.000000
0.001366 0.000975 0.000000
0.001365 0.000966 0.000000
0.001377 0.000962 0.000000
0.001381 0.000961 0.000000
0.001387 0.000949 0.000000
0.001379 0.000954 0.000000
0.001385 0.000943 0.000000
0.001394 0.000940 0.000000
0.001394 0.000933 0.000000
0.001394 0.000929 0.000000
0.001398 0.000928 0.000000
0.001400 0.000923 0.000000
0.001400 0.000917 0.000000
0.000049 0.000445 0.000000
0.000053 0.000450 0.000000
0.000049 0.000454 0.000000
0.000052 0.000455 0.000000
0.000048 0.000465 0.000000
0.000049 0.000471 0.000000
0.000052 0.000468 0.000000
0.000051 0.000478 0.000000
0.000047 0.000488 0.000000
0.000052 0.000491 0.000000
0.000057 0.000492 0.000000
0.000053 0.000498 0.000000
0.001226 0.001063 0.000000
0.001328 0.001034 0.000000
0.001337 0.001022 0.000000
0.001346 0.000999 0.000000
0.001351 0.000986 0.000000
0.001358 0.000982 0.000000
0.001352 0.000981 0.000000
0.001356 0.000976 0.000000
0.001361 0.000965 0.000000
0.001370 0.000967 0.000000
0.001366 0.000962 0.000000
0.001375 0.000957 0.000000
0.001373 0.000946 0.000000
0.001382 0.000954 0.000000
0.001383 0.000939 0.000000
0.001383 0.000930 0.000000
0.001387 0.000936 0.000000
0.001392 0.000925 0.000000
0.001396 0.000921 0.000000
0.001396 0.000915 0.000000
0.000053 0.000445 0.000000
0.000058 0.000451 0.000000
0.000055 0.000462 0.000000
0.000050 0.000460 0.000000
0.000060 0.000466 0.000000
0.000053 0.000473 0.000000
0.000057 0.000476 0.000000
0.000057 0.000480 0.000000
0.000052 0.000483 0.000000
0.000057 0.000486 0.000000
0.000056 0.000497 0.000000
0.000059 0.000496 0.000000
0.001249 0.001061 0.000000
0.001337 0.001037 0.000000
[...]
POINT_DATA 11907
SCALARS density float 1
LOOKUP_TABLE default
4427.652932
4430.233770
4425.550573
4429.029126
4431.908721
4426.683626
4436.241580
4428.015770
4431.220889
4419.746106
4429.494717
4406.238238
4427.530905
4419.406002
4415.767301
4442.039687
4439.677205
4435.239251
4453.274086
4453.422587
4425.040268
4420.083423
4400.306331
4444.583272
4423.312503
4429.116943
4450.820609
4419.523508
4432.364784
4447.412518
4428.092180
4407.308274
4431.524155
4432.217963
4430.457734
4426.105386
4432.012622
4421.054411
4426.372782
4421.866116
4423.799815
4431.917347
4448.521217
4409.123669
4411.017646
4418.384043
4421.660883
4413.259220
4422.147082
4429.214716
4442.851028
4460.596137
4435.877968
4431.284227
4426.458878
4396.086589
4444.729327
4399.472499
4438.540603
4458.332155
4423.364694
4438.247589
4403.326576
4402.698483
4420.842043
4425.811601
4432.356909
4422.023061
4432.264043
4423.048498
4455.886555
4398.567830
4466.152565
4382.784466
4447.564425
4402.988264
4470.164402
4448.052618
4429.905321
4398.498558
4419.549588
4409.952182
4466.070286
4456.933206
4438.299807
4393.690287
4425.432860
4418.291832
4400.369241
4469.805288
4408.794247
4387.029541
4423.746508
4428.061307
4446.804482
4414.189416
4424.747120
4439.023945
4446.329417
4417.126860
4418.907366
4449.247913
4449.456913
4390.543603
4465.299570
4389.728464
4508.139985
4406.572226
4434.621752
4388.578605
4413.673163
4475.836684
4445.269954
4432.259536
4438.156115
4380.042980
4432.791177
4415.209840
4400.173195
4433.600691
4425.887775
4454.275446
4436.056057
4478.791924
4429.737039
4369.103224
4488.817726
4439.012246
4436.142030
4422.539959
4440.216155
4432.988863
4404.153341
4434.495202
4436.890132
4435.344464
4477.982940
4371.019088
4460.820708
4433.036416
4417.049540
4443.092303
4474.044492
4379.041580
4463.483291
4393.273663
4442.712767
4442.755882
4446.388836
4388.503787
4408.902280
4442.323344
4419.079511
4411.753777
4431.528478
4472.096997
4450.644421
4416.275681
4390.037174
4419.384543
4433.748108
4432.016384
4442.270908
4413.944256
4439.628734
4422.191156
4452.330410
4380.571007
4419.800341
4463.149714
4427.626982
4423.280841
4433.224232
4432.823934
4362.330808
4434.507672
4400.708648
4445.303321
4383.584417
4463.403113
4477.842582
4466.529217
4432.773734
4451.404107
4444.456328
4452.388906
4368.161171
4437.372710
4411.623803
4397.358561
4465.272236
4423.857094
4423.802988
4431.300637
4414.218126
4438.778931
4435.415339
4446.720133
4399.249968
4450.205557
4444.059651
4405.653395
4449.625842
4418.351365
4417.839926
4447.984032
4463.994458
4468.768098
4427.053493
4427.106852
4412.785204
4433.142610
4453.427423
4449.681015
4446.835087
4431.520256
4451.111790
4391.808509
4407.270280
4450.649025
4457.378396
4410.988576
4419.425007
4444.896882
4424.293833
4435.084117
4441.611976
4433.619302
4426.851940
4438.510898
4440.144934
4430.592761
4408.952870
4427.970698
4425.916481
4443.646421
4416.760601
4427.740514
4383.159973
4393.768818
4426.218302
4478.873476
4429.198104
4447.733611
4399.214491
4463.090972
4433.616995
4446.621218
4396.127773
4455.137346
4433.142695
4411.517269
4468.161360
4417.405694
4406.204182
4410.914064
4431.292544
4420.806858
4416.129234
4432.246598
4431.529939
4437.664760
4430.929032
4426.545566
4442.282778
4429.714886
4435.204078
4421.316452
4434.935640
4455.998602
4401.943050
4444.117874
4406.249181
4428.420547
4465.225757
4439.622809
4433.178847
4422.206286
4447.457236
4434.053448
4408.611288
4439.863362
4421.313333
4426.315878
4456.065710
4360.304380
4443.384073
4430.475102
4433.482437
4413.484837
4422.586876
4449.440821
4414.893397
4437.780215
4434.033409
4429.104875
4454.714199
4427.191184
4470.005438
4432.641400
4434.407463
4436.857486
4399.389539
4432.475985
4430.912730
4410.633363
4466.239587
4426.336565
4460.406081
4444.795678
4413.619180
4427.316265
4437.985885
4446.981995
4430.042624
4468.562886
4432.917936
4420.381950
4421.192645
4451.624934
4425.473849
4415.003971
4459.720122
4405.792918
4437.265076
4455.050089
4392.464875
4384.722719
4393.789999
4427.547485
4516.787277
4412.432264
4441.259135
4427.828354
4399.472881
4455.995035
4387.575518
4414.691754
4419.030604
4438.373105
4409.614801
4388.298297
4420.957543
4408.806920
4395.986876
4428.550521
4411.148864
4432.775918
4421.695792
4431.123454
4406.070831
4423.282484
4440.151138
4425.894377
4488.569038
4403.392724
4406.807573
4447.367658
4426.726321
4423.165332
4466.657711
4352.968791
4416.166351
4406.004469
4435.194162
4428.114102
4438.915665
4417.060919
4415.535118
4463.270133
4380.847060
4412.125783
4443.874266
4421.466679
4424.461104
4445.209156
4452.199447
4426.659413
4479.130416
4394.936598
4427.369619
4451.439073
4432.136811
4422.631862
4419.578537
4405.271615
4459.855123
4415.228521
4369.846594
4449.980484
4429.979132
4383.264109
4442.068763
4417.992599
4446.268405
4436.161133
4424.448840
4428.921527
4416.184711
4370.375545
4400.598391
4447.165732
4442.159921
4475.763031
4434.379668
4437.422905
4432.536902
4431.667307
4438.798134
4446.280029
4449.922587
4396.015798
4436.552061
4404.769876
4439.999161
4434.485102
4445.960525
4436.920076
4443.203123
4442.799336
4450.143368
4424.866754
4397.696708
4467.110916
4477.828788
4411.161972
4419.871570
4440.441719
4419.292334
4430.149759
4397.446803
4369.509910
4459.275103
4386.560507
4444.725124
4397.758216
4442.411880
4439.973487
4466.117403
4417.419711
4435.093894
4442.551975
4417.298476
4416.417527
4442.570260
4444.490766
4422.035024
4421.493754
4416.664252
4439.940466
4439.699237
4462.755054
4395.364241
4394.562400
4396.465304
4435.307800
4384.421272
4445.939983
4438.345250
4454.663129
4429.694423
4439.467621
4424.169324
4461.544853
4431.635953
4416.736696
4424.274353
4460.567102
4388.202131
4408.980528
4425.580679
4423.605961
4459.150888
4418.651785
4447.044684
4419.931666
4424.300574
4414.738053
4439.519376
4435.744930
4431.520629
4437.255531
4403.554463
4452.545296
4408.408459
4458.526451
4450.283862
4446.534069
4447.083191
4380.537744
4395.643173
4452.301716
4427.326038
4430.325627
4433.233819
4444.175036
4443.017084
4441.633641
4409.790171
4459.528206
4393.636318
4413.608377
4425.519510
4423.568643
4401.086249
4432.860416
4419.057168
4428.494146
4450.385341
4398.000064
4439.876765
4420.430115
4431.410686
4435.068853
4437.310209
4407.609421
4458.907155
4378.271419
4441.721212
4445.770961
4420.493527
4376.738387
4418.179694
4426.149579
4422.199730
4423.397105
4433.204213
4440.732512
4469.058678
4397.966951
4406.085720
4421.453211
4416.472980
4453.744371
4401.439707
4478.011954
4416.582583
4419.215518
4444.747127
4404.891127
4430.766907
4441.305086
4430.311339
4439.974397
4438.079652
4426.894755
4440.128304
4429.101228
4464.169814
4388.867568
4434.881212
4442.193346
4376.975430
4505.102594
4436.328162
4453.308356
4428.888230
4428.461143
4445.354624
4437.969282
4476.258993
4412.925701
4479.378903
4484.269147
4437.919066
4452.277129
4424.741874
4411.579098
4444.049966
4397.043516
4421.487002
4445.988439
4439.271435
4436.704842
4428.616882
4427.543572
4404.875099
4422.020828
4440.948058
4427.666589
4458.239745
4467.798492
4462.712366
4458.958973
4445.913100
4437.658367
4399.946541
4426.899163
4420.225486
4420.587962
4430.399905
4451.291345
4420.019335
4447.136629
4429.342131
4438.502494
4423.630041
4453.264491
4450.720279
4384.238897
4445.334917
4436.134812
4439.657623
4423.255961
4428.976498
4406.665495
4428.360252
4430.519712
4457.846057
4409.140192
4422.746908
4425.082453
4409.780730
4392.900845
4435.959284
4436.087762
4447.093609
4423.704869
4423.500482
4434.845971
4420.889162
4441.620995
4445.265833
4476.284558
4436.287179
4468.876813
4438.508824
4410.645442
4484.971803
4424.978061
4390.653093
4414.836456
4399.437522
4416.302109
4430.275977
4426.590709
4427.430933
4442.043862
4445.579854
4435.110059
4433.470011
4440.100204
4436.699706
4424.027493
4429.567080
4436.212346
4387.137342
4395.717662
4468.714466
4463.411132
4403.131405
4487.071800
4423.485488
4416.383767
4420.771680
4474.274275
4439.027214
4426.147430
4355.201728
4440.059962
4403.890758
4446.501617
4475.978274
4430.932035
4469.551760
4457.630469
4445.218181
4421.641922
4446.358431
4409.020660
4417.469621
4433.033010
4442.915528
4426.364030
4453.655180
4407.911599
4435.422708
4402.497567
4441.237507
4425.758662
4440.686900
4373.107117
4430.604249
4434.825755
4437.500754
4419.444522
4435.696223
4434.532529
4450.076714
4423.630025
4454.278954
4432.881486
4425.524331
4347.254762
4470.218870
4445.943942
4438.033078
4420.069249
4408.746220
4447.356261
4402.274509
4439.344314
4436.615381
4436.769548
4411.304165
4439.325093
4417.901665
4421.344081
4457.515383
4424.250825
4442.994440
4461.259628
4442.205875
4421.267610
4416.526491
4449.145655
4433.244952
4457.568439
4385.653371
4452.058137
4433.834676
4439.906947
4428.041758
4444.442764
4446.577622
4399.152749
4349.221347
4485.880226
4424.135373
4412.441878
4395.378039
4427.412440
4432.840953
4437.980174
4416.149804
4423.839058
4434.692926
4420.439153
4431.586949
4434.405628
4414.946440
4426.273979
4392.620848
4399.310165
4411.822765
4439.994318
4429.962396
4427.049840
4455.852474
4422.137628
4439.650208
4401.916468
4354.438943
4393.285687
4422.657439
4380.857958
4375.106090
4451.210869
4437.457514
4379.817346
4439.762145
4423.803915
4423.810320
4425.671541
4419.135906
4449.429570
4442.606194
4423.260459
4429.594748
4430.622435
4430.899961
4431.047302
4430.873198
4430.329966
4429.926705
4429.497472
4429.634875
4430.344037
4431.553695
4432.055643
4431.745867
4431.319316
4430.692746
4430.049868
4430.473338
4429.259949
4429.004254
4429.632420
4430.767112
4432.281842
4433.362426
4433.727376
4432.287917
4429.758983
4428.402482
4429.023812
4430.467748
4430.873877
4430.043489
4430.427568
4431.565756
4432.139788
4431.727316
4430.310176
4428.918943
4427.458719
4427.337552
4428.686241
4432.033882
4433.549006
4432.184432
4430.614936
4428.822738
4430.484780
4430.148384
4428.909786
4428.398245
4428.826882
4430.348165
4431.842443
4433.692386
4433.699656
4432.454902
4428.911743
4426.816600
4427.185803
4428.791157
4429.118855
4430.254531
4430.007019
4431.553562
4432.050708
4431.648193
4430.089086
4428.597478
4426.597274
4426.654977
4427.810040
4431.309180
4433.241833
4432.410076
4429.494847
4429.945678
4430.186738
4429.753010
4429.012698
4427.510595
4429.059082
4429.403317
4432.020441
4432.687673
4434.109476
4431.001010
4429.580637
4425.419942
4428.082398
4428.364935
4429.597148
4429.973993
4429.764396
4431.444082
4431.793693
4431.486039
4429.699355
4428.329141
4426.156279
4426.219852
4427.542597
4430.509244
4432.946417
4431.847717
4428.871819
4428.600459
4429.850252
4429.758446
4428.590357
4427.650137
4428.266103
4429.731772
4431.048972
4433.024662
4433.054499
4431.328949
4428.558825
4425.459981
4426.550066
4427.916880
4429.129145
4429.242170
4429.971583
4430.782590
4431.817337
4431.197445
4429.439534
4428.054029
4425.818105
4425.998112
4427.023491
4430.262048
4432.600487
4431.812542
4429.534419
4429.444065
4429.593180
4429.592612
4428.391375
4427.421320
4428.043750
4429.435029
4430.867046
4432.578588
4432.775250
4430.904414
4428.308234
4425.161207
4426.831676
4427.613012
4429.916959
4429.183187
4429.675321
4430.842338
4431.545784
4430.870456
4429.422796
4427.369711
4425.958310
4425.666463
4426.693592
4429.847211
4432.115253
4430.894929
4427.543814
4423.861225
4429.385063
4429.545453
4428.110881
4427.170747
4427.880469
4428.955064
4430.913327
4432.142280
4432.586329
4430.796223
4427.742493
4425.128083
4425.358292
4426.914183
4428.235620
4429.012418
4429.410253
4430.756181
4431.303030
4430.647297
4429.225132
4427.210880
4425.695500
4425.765888
4426.364683
4429.691318
4432.405107
4431.208518
4428.678245
4428.385098
4454.339247
4438.194334
4415.050286
4443.700373
4449.008717
4463.244703
4431.620225
4418.980981
4410.142251
4458.762944
4464.010615
4398.989322
4462.144263
4483.980513
4427.907558
4415.258731
4429.109146
4429.290356
4428.189449
4426.567015
4427.975926
4428.537635
4430.803548
4431.972167
4432.231274
4430.493073
4428.489846
4424.354337
4427.839005
4428.441672
4430.615743
4436.700206
4411.405175
4427.728066
4421.463659
4415.498434
4443.185886
4439.391280
4444.916251
4395.991768
4386.070977
4438.643407
4418.409725
4434.270585
4365.175482
4470.690499
4407.511345
4428.559300
4429.236362
4430.528700
4431.002686
4430.708581
4428.639691
4427.624882
4424.955563
4426.423331
4425.915877
4429.463471
4432.890961
4430.885914
4428.386371
4429.894424
4441.275772
4456.961549
4420.605569
4440.387832
4399.367988
4446.079906
4411.326811
4430.842025
4415.113485
4440.394002
4458.935045
4419.800145
4420.836631
4452.868334
4418.159484
4415.040283
4428.868699
4429.315582
4427.886468
4426.588345
4427.517040
4428.937347
4430.070575
4432.388912
4431.062391
4430.914947
4428.268890
4424.036446
4427.545456
4426.839687
4428.670941
4445.245016
4428.248254
4439.898901
4406.447218
4402.742804
4445.388914
4437.485067
4416.255591
4423.726993
4421.477665
4428.995448
4438.503670
4406.705456
4413.800117
4437.167488
4451.974219
4428.452635
4429.464469
4429.993348
4431.258289
4430.280093
4428.937698
4427.170639
4425.257010
4426.107854
4425.777421
4428.966357
4433.065437
4429.819013
4428.259350
4427.732993
4443.162847
4446.138839
4418.502589
4462.405213
4425.739515
4438.166686
4438.745480
4469.501923
4434.399917
4450.217783
4392.071621
4428.760676
4444.025704
4412.348898
4435.912654
4419.599471
4428.479017
4429.344087
4427.608261
4426.791718
4427.100411
4429.235192
4429.828828
4432.338750
4430.719262
4430.816135
4428.061667
4424.306362
4427.255999
4427.582707
4425.815561
4435.741276
4449.239601
4438.729575
4395.091106
4482.133342
4400.764998
4422.458439
4445.546454
4474.309121
4390.201194
4437.611995
4442.379800
4431.802937
4419.839538
4453.497008
4420.822512
4428.508197
4429.584495
4429.720104
4431.314798
4430.038218
4429.139357
4426.666038
4425.954221
4425.708822
4426.216175
4428.260058
4433.513154
4428.713036
4429.474385
4428.262342
4434.576168
4426.769864
4444.889323
4440.324357
4338.111295
4437.902806
4426.114237
4425.305215
4396.957893
4445.241090
4457.321081
4445.419985
4444.065926
4397.705146
4469.635754
4419.202873
4428.319535
4429.278762
4427.439329
4426.754967
4426.866284
4429.056579
4429.718290
4432.230377
4430.577286
4430.885124
4428.130950
4424.800055
4427.385733
4427.823866
4426.749493
4424.597626
4410.331849
4370.390365
4385.244760
4394.311788
4481.460390
4438.038407
4423.386413
4427.514179
4444.931612
4425.736224
4379.559948
4407.108967
4377.451096
4469.568804
4414.982091
4428.382804
4429.229674
4429.894897
4430.795260
4430.314805
4428.506033
4427.072026
4425.667025
4426.732013
4425.584186
4428.906526
4433.102934
4430.474805
4429.327857
4428.876792
4433.477173
4447.269537
4393.026312
4409.255058
4443.026405
4435.120461
4431.023476
4425.717770
4485.443852
4454.295899
4375.149325
4395.856367
4452.995822
4389.885705
4434.341640
4408.410756
4428.321988
4428.857555
4427.766506
4426.248534
4427.228003
4428.422012
4429.990111
4431.743232
4430.823396
4430.527257
4428.420121
4424.867188
4427.840633
4427.253721
4429.373407
4443.980201
4430.613080
4433.126724
4447.376562
4379.583016
4417.564098
4429.428007
4440.089992
4382.824298
4445.672517
4453.063384
4503.142076
4429.995937
4397.181464
4427.466347
4444.059251
4428.236214
4429.128367
4429.718926
4430.681899
4430.265917
4428.333292
4427.024793
4426.017696
4426.895167
4425.421616
4428.435480
4433.040571
4430.345649
4429.226791
4427.769364
4421.920020
4445.024631
4408.648753
4445.276952
4454.536099
4434.707317
4451.850165
4469.814606
4412.112447
4449.443941
4430.922147
4442.959980
4469.089085
4393.186117
4461.774228
4409.670719
4428.172407
4429.050705
4427.379665
4426.763342
4426.519332
4428.989513
4429.266004
4431.865244
4430.430557
4430.438743
4427.701960
4424.728569
4425.884986
4426.606307
4424.731343
4428.115562
4480.012094
4454.697801
4377.141791
4456.911971
4427.940082
4446.718069
4416.653150
4459.368341
4442.957905
4414.092127
4412.717437
4449.942088
4416.114705
4414.428649
4418.946024
4428.066451
4429.409997
4429.171490
4430.965391
4430.199822
4428.314996
4426.884926
4426.633404
4426.400323
4425.581319
4427.480317
4432.652512
4428.642407
4427.666962
4425.462602
4428.425626
4414.980199
4432.586367
4449.721705
4411.653684
4444.178350
4448.504897
4432.908861
4433.201701
4440.550511
4449.430503
4403.563220
4420.834644
4377.413346
4466.081833
4444.664781
4427.956734
4429.178380
4427.251706
4426.979873
4426.244153
4429.331239
4428.937173
4431.863064
4430.036615
4430.310392
4427.249223
4424.769393
4425.496241
4425.853147
4426.739657
4406.309197
4445.707497
4400.596402
4433.517771
4450.199246
4430.028776
4430.165178
4424.103645
4408.119505
4447.058155
4425.585915
4405.966175
4388.043628
4427.597917
4389.920246
4447.635674
4427.902157
4429.524023
4428.924446
4431.258580
4429.834506
4428.405949
4426.625735
4427.152108
4426.311016
4425.769451
4427.283550
4432.200423
4428.855949
4427.428869
4425.250122
4434.623510
4418.109924
4408.919792
4446.030798
4385.097634
4407.193366
4423.882261
4446.977860
4445.431339
4422.471918
4428.596044
4404.460593
4445.949646
4474.095169
4417.105815
4401.649131
4428.136381
4429.039056
4427.521968
4426.629179
4426.694702
4428.590350
4429.193251
4432.004603
4429.899355
4430.335035
4427.514675
4425.224035
4425.510432
4425.871741
4424.711021
4422.649926
4410.172194
4430.425824
4413.757532
4415.323570
4441.739995
4421.151192
4429.786649
4420.279163
4449.259045
4500.654673
4390.988324
4439.564993
4429.132509
4447.742837
4427.428672
4428.096631
4429.182098
4429.356934
4430.897396
4429.812159
4428.290161
4426.945313
4426.928694
4427.402419
4425.612895
4427.010116
4432.613284
4429.515675
4427.737490
4426.828448
4436.065954
4421.395024
4442.255446
4438.781710
4392.745533
4431.024390
4451.443117
4435.222266
4456.158542
4407.070177
4475.925889
4443.119103
4403.731672
4423.166275
4391.719530
4423.780867
4428.441171
4429.110949
4427.558538
4426.741346
4426.596789
4428.406761
4429.285503
4431.870550
4430.194182
4429.887428
4428.225669
4424.839809
4426.408056
4425.471075
4426.119235
4449.702773
4453.140057
4429.843163
4451.179130
4382.257146
4417.435620
4443.209172
4385.320163
4467.739692
4443.001725
4447.331922
4470.125640
4442.499143
4433.343420
4407.311979
4412.566830
4428.206476
4428.916024
4429.512004
4430.408519
4430.567918
4427.433535
4427.771003
4426.724670
4428.036309
4425.029905
4427.269308
4433.014565
4428.494734
4426.937384
4426.487299
4443.600168
4442.087508
4394.559791
4463.890895
4389.758866
4436.046100
4438.106417
4429.731190
4466.430327
4450.295115
4473.018171
4404.630357
4409.247278
4458.585905
4366.735507
4428.414013
4428.299223
4429.468818
4427.409167
4427.229154
4425.995166
4429.563371
4428.703087
4431.870790
4430.851092
4430.214800
4427.443461
4425.599848
4425.228404
4424.611031
4424.858700
4422.368487
4427.308037
4418.406170
4391.320350
4435.033086
4441.863559
4444.630163
4415.232252
4385.349496
4446.847631
4403.630977
4434.938218
4439.889070
4402.480725
4397.391389
4444.089560
4428.166302
4429.494024
4428.448376
4431.642608
4430.132069
4428.473301
4427.404424
4428.785352
4426.679423
4425.455363
4428.148023
4431.638056
4428.244039
4427.648081
4425.614198
4420.640883
4404.759174
4422.296451
4426.968413
4458.836021
4414.700188
4434.870140
4500.150648
4417.418846
4398.106000
4430.612550
4403.471788
4479.877183
4421.020753
4558.193954
4413.118517
4428.280425
4429.296329
4428.072798
4426.896562
4426.773575
4429.107758
4428.593325
4432.258777
4430.704498
4429.763482
4427.176352
4427.140265
4425.639722
4426.170102
4422.632001
4442.346767
4424.074312
4440.779517
4431.642831
4465.331129
4462.673801
4441.381789
4448.012004
4473.452140
4437.568439
4442.135768
4439.592136
4451.962546
4439.346620
4280.367196
4427.921319
4428.563916
4429.693069
4428.506402
4431.663610
4429.671936
4428.448834
4426.761495
4429.101064
4426.044923
4426.740482
4428.051780
4431.008462
4427.478044
4427.725824
4424.560301
4424.165114
4372.968249
4376.960218
4402.002834
4444.668318
4412.869828
4437.290294
4441.496724
4441.477048
4433.359466
4400.513346
4446.175180
4441.936599
4427.035576
4385.887524
4405.641841