# vtk DataFile Version 2.0
mfree iwf
ASCII

DATASET UNSTRUCTURED_GRID
POINTS 8616 float
0.000001 0.000445 0.000000
0.000001 0.000450 0.000000
0.000001 0.000455 0.000000
0.000001 0.000460 0.000000
0.000001 0.000465 0.000000
0.000001 0.000470 0.000000
0.000001 0.000475 0.000000
0.000001 0.000480 0.000000
0.000001 0.000486 0.000000
0.000001 0.000490 0.000000
0.000001 0.000496 0.000000
0.000003 0.000500 0.000000
0.000138 0.000561 0.000000
0.000138 0.000569 0.000000
0.000138 0.000589 0.000000
0.000138 0.000597 0.000000
0.000138 0.000597 0.000000
0.000138 0.000601 0.000000
0.000138 0.000608 0.000000
0.000138 0.000611 0.000000
0.000138 0.000620 0.000000
0.000138 0.000642 0.000000
0.000139 0.000648 0.000000
0.000140 0.000653 0.000000
0.000142 0.000657 0.000000
0.000143 0.000662 0.000000
0.000144 0.000666 0.000000
0.000146 0.000672 0.000000
0.000148 0.000676 0.000000
0.000150 0.000681 0.000000
0.000152 0.000689 0.000000
0.000161 0.000715 0.000000
0.000006 0.000445 0.000000
0.000006 0.000450 0.000000
0.000006 0.000455 0.000000
0.000006 0.000460 0.000000
0.000006 0.000465 0.000000
0.000006 0.000470 0.000000
0.000006 0.000476 0.000000
0.000006 0.000480 0.000000
0.000006 0.000486 0.000000
0.000007 0.000490 0.000000
0.000005 0.000496 0.000000
0.000007 0.000499 0.000000
0.000138 0.000586 0.000000
0.000145 0.000597 0.000000
0.000140 0.000621 0.000000
0.000140 0.000628 0.000000
0.000140 0.000632 0.000000
0.000141 0.000637 0.000000
0.000142 0.000641 0.000000
0.000143 0.000645 0.000000
0.000145 0.000652 0.000000
0.000146 0.000656 0.000000
0.000149 0.000664 0.000000
0.000150 0.000669 0.000000
0.000154 0.000676 0.000000
0.000155 0.000683 0.000000
0.000155 0.000687 0.000000
0.000157 0.000691 0.000000
0.000157 0.000701 0.000000
0.000158 0.000705 0.000000
0.000157 0.000702 0.000000
0.000160 0.000712 0.000000
0.000010 0.000445 0.000000
0.000012 0.000450 0.000000
0.000010 0.000456 0.000000
0.000012 0.000460 0.000000
0.000010 0.000465 0.000000
0.000012 0.000470 0.000000
0.000011 0.000476 0.000000
0.000012 0.000480 0.000000
0.000010 0.000486 0.000000
0.000012 0.000490 0.000000
0.000010 0.000497 0.000000
0.000012 0.000498 0.000000
0.000144 0.000586 0.000000
0.000146 0.000596 0.000000
0.000143 0.000608 0.000000
0.000143 0.000613 0.000000
0.000143 0.000618 0.000000
0.000142 0.000625 0.000000
0.000147 0.000625 0.000000
0.000147 0.000635 0.000000
0.000148 0.000639 0.000000
0.000147 0.000647 0.000000
0.000151 0.000650 0.000000
0.000150 0.000659 0.000000
0.000154 0.000659 0.000000
0.000157 0.000667 0.000000
0.000154 0.000672 0.000000
0.000156 0.000679 0.000000
0.000160 0.000694 0.000000
0.000160 0.000698 0.000000
0.000161 0.000707 0.000000
0.000165 0.000712 0.000000
0.000015 0.000445 0.000000
0.000017 0.000450 0.000000
0.000015 0.000455 0.000000
0.000017 0.000460 0.000000
0.000015 0.000466 0.000000
0.000017 0.000471 0.000000
0.000015 0.000476 0.000000
0.000017 0.000480 0.000000
0.000015 0.000485 0.000000
0.000017 0.000489 0.000000
0.000015 0.000495 0.000000
0.000018 0.000498 0.000000
0.000026 0.000500 0.000000
0.000146 0.000602 0.000000
0.000148 0.000612 0.000000
0.000147 0.000616 0.000000
0.000149 0.000629 0.000000
0.000143 0.000632 0.000000
0.000153 0.000637 0.000000
0.000149 0.000643 0.000000
0.000155 0.000648 0.000000
0.000152 0.000654 0.000000
0.000158 0.000662 0.000000
0.000153 0.000665 0.000000
0.000159 0.000673 0.000000
0.000161 0.000678 0.000000
0.000161 0.000683 0.000000
0.000161 0.000687 0.000000
0.000163 0.000691 0.000000
0.000166 0.000699 0.000000
0.000165 0.000704 0.000000
0.000169 0.000710 0.000000
0.000020 0.000445 0.000000
0.000022 0.000450 0.000000
0.000020 0.000456 0.000000
0.000022 0.000460 0.000000
0.000019 0.000465 0.000000
0.000022 0.000469 0.000000
0.000020 0.000475 0.000000
0.000022 0.000480 0.000000
0.000020 0.000486 0.000000
0.000022 0.000491 0.000000
0.000022 0.000498 0.000000
0.000023 0.000499 0.000000
0.000040 0.000500 0.000000
0.000154 0.000600 0.000000
0.000151 0.000607 0.000000
0.000153 0.000613 0.000000
0.000149 0.000621 0.000000
0.000153 0.000625 0.000000
0.000152 0.000632 0.000000
0.000153 0.000642 0.000000
0.000157 0.000642 0.000000
0.000157 0.000652 0.000000
0.000162 0.000654 0.000000
0.000165 0.000663 0.000000
0.000161 0.000668 0.000000
0.000165 0.000674 0.000000
0.000166 0.000679 0.000000
0.000170 0.000689 0.000000
0.000167 0.000694 0.000000
0.000171 0.000700 0.000000
0.000170 0.000704 0.000000
0.000172 0.000709 0.000000
0.000025 0.000445 0.000000
0.000026 0.000450 0.000000
0.000025 0.000455 0.000000
0.000026 0.000459 0.000000
0.000026 0.000466 0.000000
0.000027 0.000471 0.000000
0.000024 0.000476 0.000000
0.000027 0.000479 0.000000
0.000025 0.000485 0.000000
0.000027 0.000490 0.000000
0.000027 0.000492 0.000000
0.000028 0.000500 0.000000
0.000138 0.000578 0.000000
0.000150 0.000601 0.000000
0.000146 0.000606 0.000000
0.000153 0.000618 0.000000
0.000156 0.000619 0.000000
0.000154 0.000629 0.000000
0.000161 0.000632 0.000000
0.000158 0.000635 0.000000
0.000159 0.000646 0.000000
0.000163 0.000648 0.000000
0.000159 0.000658 0.000000
0.000164 0.000659 0.000000
0.000165 0.000669 0.000000
0.000169 0.000679 0.000000
0.000167 0.000684 0.000000
0.000172 0.000684 0.000000
0.000171 0.000695 0.000000
0.000174 0.000692 0.000000
0.000175 0.000703 0.000000
0.000177 0.000708 0.000000
0.000030 0.000445 0.000000
0.000031 0.000450 0.000000
0.000030 0.000457 0.000000
0.000033 0.000462 0.000000
0.000029 0.000464 0.000000
0.000032 0.000469 0.000000
0.000031 0.000474 0.000000
0.000032 0.000480 0.000000
0.000031 0.000486 0.000000
0.000032 0.000492 0.000000
0.000034 0.000498 0.000000
0.000031 0.000499 0.000000
0.000050 0.000500 0.000000
0.000151 0.000593 0.000000
0.000158 0.000609 0.000000
0.000157 0.000612 0.000000
0.000159 0.000624 0.000000
0.000160 0.000628 0.000000
0.000162 0.000638 0.000000
0.000163 0.000642 0.000000
0.000167 0.000643 0.000000
0.000167 0.000654 0.000000
0.000171 0.000657 0.000000
0.000169 0.000667 0.000000
0.000174 0.000670 0.000000
0.000170 0.000673 0.000000
0.000174 0.000676 0.000000
0.000172 0.000686 0.000000
0.000179 0.000694 0.000000
0.000177 0.000698 0.000000
0.000180 0.000702 0.000000
0.000181 0.000706 0.000000
0.000036 0.000445 0.000000
0.000036 0.000450 0.000000
0.000038 0.000455 0.000000
0.000034 0.000456 0.000000
0.000035 0.000465 0.000000
0.000038 0.000472 0.000000
0.000034 0.000476 0.000000
0.000039 0.000481 0.000000
0.000035 0.000484 0.000000
0.000036 0.000488 0.000000
0.000039 0.000492 0.000000
0.000037 0.000498 0.000000
0.000138 0.000554 0.000000
0.000138 0.000575 0.000000
0.000159 0.000604 0.000000
0.000161 0.000616 0.000000
0.000162 0.000620 0.000000
0.000166 0.000625 0.000000
0.000165 0.000632 0.000000
0.000168 0.000637 0.000000
0.000167 0.000649 0.000000
0.000172 0.000648 0.000000
0.000170 0.000661 0.000000
0.000174 0.000659 0.000000
0.000174 0.000666 0.000000
0.000178 0.000678 0.000000
0.000178 0.000682 0.000000
0.000182 0.000686 0.000000
0.000179 0.000689 0.000000
0.000183 0.000694 0.000000
0.000184 0.000700 0.000000
0.000186 0.000705 0.000000
0.000041 0.000445 0.000000
0.000041 0.000450 0.000000
0.000039 0.000460 0.000000
0.000042 0.000457 0.000000
0.000041 0.000466 0.000000
0.000039 0.000469 0.000000
0.000044 0.000475 0.000000
0.000039 0.000477 0.000000
0.000041 0.000487 0.000000
0.000043 0.000492 0.000000
0.000042 0.000497 0.000000
0.000046 0.000498 0.000000
0.000138 0.000514 0.000000
0.000148 0.000591 0.000000
0.000158 0.000598 0.000000
0.000170 0.000610 0.000000
0.000166 0.000620 0.000000
0.000167 0.000627 0.000000
0.000171 0.000632 0.000000
0.000170 0.000639 0.000000
0.000173 0.000643 0.000000
0.000172 0.000651 0.000000
0.000176 0.000654 0.000000
0.000179 0.000663 0.000000
0.000178 0.000669 0.000000
0.000182 0.000671 0.000000
0.000180 0.000676 0.000000
0.000183 0.000682 0.000000
0.000185 0.000688 0.000000
0.000188 0.000694 0.000000
0.000189 0.000699 0.000000
0.000191 0.000704 0.000000
0.000045 0.000445 0.000000
0.000047 0.000450 0.000000
0.000046 0.000455 0.000000
0.000046 0.000461 0.000000
0.000045 0.000465 0.000000
0.000047 0.000470 0.000000
0.000047 0.000478 0.000000
0.000043 0.000481 0.000000
0.000051 0.000484 0.000000
0.000046 0.000485 0.000000
0.000049 0.000493 0.000000
0.000051 0.000498 0.000000
0.000138 0.000519 0.000000
0.000139 0.000581 0.000000
0.000155 0.000606 0.000000
0.000165 0.000613 0.000000
0.000170 0.000618 0.000000
0.000172 0.000627 0.000000
0.000175 0.000636 0.000000
0.000177 0.000640 0.000000
0.000179 0.000648 0.000000
0.000181 0.000652 0.000000
0.000179 0.000658 0.000000
0.000182 0.000666 0.000000
0.000183 0.000661 0.000000
0.000186 0.000674 0.000000
0.000188 0.000679 0.000000
0.000188 0.000684 0.000000
0.000191 0.000688 0.000000
0.000192 0.000693 0.000000
0.000193 0.000698 0.000000
0.000195 0.000702 0.000000
0.000050 0.000445 0.000000
0.000052 0.000450 0.000000
0.000050 0.000456 0.000000
0.000052 0.000459 0.000000
0.000050 0.000465 0.000000
0.000053 0.000471 0.000000
0.000049 0.000474 0.000000
0.000052 0.000477 0.000000
0.000049 0.000488 0.000000
0.000053 0.000491 0.000000
0.000058 0.000493 0.000000
0.000054 0.000499 0.000000
0.000138 0.000545 0.000000
0.000147 0.000578 0.000000
0.000151 0.000588 0.000000
0.000165 0.000609 0.000000
0.000173 0.000617 0.000000
0.000175 0.000623 0.000000
0.000179 0.000629 0.000000
0.000176 0.000632 0.000000
0.000184 0.000642 0.000000
0.000178 0.000644 0.000000
0.000184 0.000653 0.000000
0.000187 0.000658 0.000000
0.000190 0.000666 0.000000
0.000187 0.000670 0.000000
0.000192 0.000675 0.000000
0.000193 0.000679 0.000000
0.000194 0.000685 0.000000
0.000196 0.000691 0.000000
0.000198 0.000696 0.000000
0.000200 0.000701 0.000000
0.000055 0.000445 0.000000
0.000057 0.000450 0.000000
0.000055 0.000455 0.000000
0.000057 0.000461 0.000000
0.000054 0.000465 0.000000
0.000058 0.000469 0.000000
0.000057 0.000477 0.000000
0.000059 0.000482 0.000000
0.000054 0.000483 0.000000
0.000057 0.000487 0.000000
0.000057 0.000497 0.000000
0.000061 0.000497 0.000000
0.000138 0.000550 0.000000
0.000139 0.000583 0.000000
0.000146 0.000586 0.000000
[...]
POINT_DATA 8616
SCALARS density float 1
LOOKUP_TABLE default
4428.799913
4430.971117
4426.324285
4421.938787
4421.180453
4427.902975
4439.634428
4432.655227
4443.417153
4427.020899
4434.352445
4397.232365
4598.232767
4435.971118
4566.856632
4447.880491
4440.686508
4551.089725
4488.695154
4525.627643
4544.388476
4437.088000
4412.820804
4429.035363
4425.242716
4421.553854
4436.906731
4425.588428
4429.172994
4426.198298
4449.170697
4432.454330
4421.402642
4426.133353
4424.608139
4435.384462
4443.126553
4419.347935
4423.464375
4424.970691
4405.575486
4415.849647
4447.326647
4399.518919
4409.297102
4445.785155
4392.014544
4392.823562
4399.081905
4397.425882
4408.282853
4427.143652
4430.450475
4412.630867
4428.122169
4399.858115
4444.650402
4394.901877
4401.953415
4403.553798
4435.824475
4386.940848
4436.841583
4453.535217
4421.732781
4421.379661
4446.253616
4400.703736
4438.548471
4410.706490
4453.808154
4380.420065
4486.238587
4360.601936
4479.489191
4406.044164
4477.453933
4449.005679
4452.703574
4393.267031
4412.038848
4372.344561
4565.504889
4436.599352
4440.439181
4404.577510
4406.376435
4397.920301
4389.656380
4436.742951
4418.784090
4421.051378
4409.095063
4460.314044
4417.750925
4410.071014
4430.322180
4439.977512
4431.663785
4446.800357
4443.226642
4416.677633
4463.878642
4385.787354
4475.306889
4377.746906
4526.674886
4397.073851
4435.121094
4421.483593
4486.958024
4474.281878
4366.482459
4452.033555
4390.805783
4448.514219
4415.641501
4454.336327
4402.672667
4440.370382
4379.022621
4464.046975
4430.510620
4474.274291
4461.158368
4382.898728
4481.084560
4442.064461
4429.998500
4428.036840
4436.665877
4416.610355
4435.769504
4431.200836
4429.805114
4440.455908
4468.918278
4363.296002
4464.210099
4432.702516
4418.671168
4393.655529
4455.288116
4372.990869
4403.204182
4405.429676
4427.071509
4447.367144
4428.935731
4409.853908
4437.345726
4420.086841
4464.187783
4415.082708
4448.412943
4428.656553
4397.840266
4472.901065
4360.346147
4444.892798
4432.272283
4428.994312
4433.380207
4428.786439
4443.355382
4426.921425
4434.205028
4411.768775
4403.553109
4478.339681
4429.180768
4424.431302
4529.060602
4483.757475
4409.291857
4434.395997
4476.687567
4472.356694
4449.227523
4458.185925
4462.185283
4442.253293
4449.853711
4446.803004
4447.207966
4466.113739
4347.590179
4455.195467
4463.074498
4409.299868
4421.294060
4431.330033
4435.576814
4425.904851
4418.346109
4423.968481
4430.525004
4414.006717
4422.025071
4423.936777
4425.382128
4391.919496
4464.823333
4415.651655
4427.533308
4472.409726
4427.728805
4491.716636
4414.297631
4389.786605
4411.718869
4437.833547
4423.548113
4399.998545
4454.778930
4416.645281
4438.030037
4416.876498
4405.811619
4466.022843
4459.370823
4408.090300
4416.685112
4434.828235
4438.222786
4433.394368
4408.322965
4427.946992
4443.997267
4430.190732
4442.177444
4404.459965
4433.208456
4428.187515
4429.383304
4447.933272
4580.085061
4490.639070
4451.650684
4403.367958
4477.040145
4456.031101
4431.579068
4454.893491
4431.744654
4438.647807
4438.370579
4436.051552
4424.507344
4425.226712
4405.186822
4442.689776
4401.052451
4436.197251
4410.268762
4432.013225
4425.027947
4440.146990
4429.452421
4435.434178
4423.019993
4436.627438
4427.284914
4417.162245
4456.758823
4407.785116
4430.002291
4424.595318
4592.830966
4434.449662
4474.565143
4439.775868
4434.329983
4464.267386
4464.768587
4444.182276
4439.212340
4457.899138
4438.450824
4451.944907
4419.306887
4408.910098
4441.646209
4443.302915
4406.487181
4424.903472
4414.795987
4434.287185
4432.135985
4423.229111
4418.189367
4422.634604
4427.525178
4419.731601
4416.450379
4454.820865
4457.955166
4393.862683
4466.362409
4441.499554
4504.491017
4411.139573
4448.188982
4470.645725
4443.347219
4420.821724
4412.827406
4451.971938
4410.054133
4444.186096
4427.352160
4426.099651
4444.239543
4419.825026
4412.115559
4420.951988
4433.413613
4449.441023
4427.806720
4416.999207
4430.362015
4422.345048
4426.946200
4420.659695
4434.450658
4415.438857
4467.427163
4380.483792
4421.338009
4408.896977
4567.731539
4395.912971
4646.541956
4423.388777
4430.449045
4448.893153
4478.385664
4436.960002
4458.398596
4458.793634
4440.165579
4458.783215
4454.153436
4416.073403
4443.357664
4448.844205
4442.431886
4455.452808
4428.311522
4414.025937
4419.735233
4422.006871
4433.968982
4419.276061
4433.773509
4422.765753
4421.983673
4418.870300
4433.638685
4416.947428
4482.698073
4365.479115
4394.181043
4385.600302
4510.107705
4388.893349
4435.939817
4442.569163
4426.671571
4465.976949
4441.433628
4453.264882
4452.159968
4473.932088
4473.987516
4439.908534
4433.543186
4425.485658
4421.225204
4413.332713
4440.969510
4429.784731
4424.628606
4424.301324
4429.497519
4411.047721
4428.396073
4411.345699
4426.110614
4422.075364
4463.581011
4395.596904
4469.466391
4405.070599
4448.904818
4439.464199
4408.909076
4353.638597
4440.273618
4417.130683
4420.966416
4422.366850
4459.731527
4430.794750
4461.843885
4450.335606
4408.076511
4449.462793
4441.650525
4432.826668
4440.010061
4460.730210
4425.279210
4419.985821
4413.477448
4417.492599
4442.223020
4427.274299
4422.952374
4425.751803
4437.270550
4400.807465
4465.467116
4426.300877
4446.824815
4371.184438
4451.190143
4426.973433
4617.334887
4455.148200
4351.695721
4455.787565
4454.716723
4473.473547
4431.068787
4460.477637
4407.257998
4466.438216
4439.406565
4415.610898
4436.696813
4453.278482
4413.523190
4429.408666
4438.420497
4426.169427
4425.821728
4418.170822
4423.254314
4424.657250
4414.912333
4416.547297
4422.200925
4420.191772
4445.032459
4381.294905
4444.712335
4458.431618
4439.872589
4451.861897
4529.879607
4432.405253
4405.592161
4460.450391
4479.929033
4440.551595
4489.792178
4460.824310
4464.657507
4439.182384
4430.800440
4454.693458
4448.714752
4426.928209
4446.154547
4437.821136
4438.012654
4408.097851
4420.744570
4421.105114
4443.594355
4431.105799
4424.809359
4432.193519
4424.087149
4419.106941
4415.028466
4431.082874
4436.301673
4348.917064
4434.766656
4447.088525
4423.779079
4423.038404
4500.443106
4503.567726
4450.118473
4433.100785
4437.695212
4445.483733
4427.589653
4470.108752
4429.787025
4449.806152
4446.639446
4437.910768
4465.173193
4408.947379
4434.324107
4430.341456
4407.768795
4418.865060
4423.368484
4421.284869
4427.747264
4421.748530
4423.239839
4429.275743
4421.327257
4406.903509
4402.485903
4516.215114
4379.449593
4426.908144
4421.111183
4422.308117
4481.053532
4449.237305
4445.860158
4416.921020
4397.304257
4427.007431
4431.088130
4441.539940
4462.748333
4472.083652
4429.889566
4432.767696
4420.109501
4456.051884
4419.072729
4427.801059
4419.519081
4415.571015
4445.394371
4424.286005
4429.536160
4424.153583
4428.549092
4406.399585
4438.937807
4424.385788
4427.010801
4415.087025
4441.959925
4464.479137
4503.265064
4567.166848
4646.823003
4484.160990
4448.434753
4406.351108
4461.754388
4468.997927
4470.194880
4464.265599
4452.327840
4450.048450
4448.218098
4441.852379
4433.080586
4443.029713
4419.850235
4424.135442
4424.254568
4417.344635
4421.498102
4427.187529
4434.428785
4424.919745
4434.722542
4443.761079
4425.298559
4439.455108
4446.653551
4448.887083
4388.635881
4417.155795
4402.391541
4417.519326
4412.189528
4530.223726
4458.721580
4424.215735
4439.652572
4470.302624
4451.765287
4457.382197
4408.737849
4411.214420
4458.356161
4432.117769
4447.625250
4398.452750
4447.091221
4420.559014
4412.883380
4418.483184
4445.194437
4433.392197
4429.449932
4430.276477
4425.668509
4418.297235
4406.798691
4423.994988
4431.006904
4425.749311
4435.014819
4439.316017
4387.385771
4492.701928
4435.109788
4493.720814
4457.058654
4523.444863
4389.265034
4426.891808
4423.305769
4393.222548
4468.573204
4446.098308
4448.677031
4436.102739
4450.787643
4439.800233
4434.028715
4419.796112
4417.820611
4421.019359
4415.106039
4419.463093
4424.456427
4436.337011
4418.601106
4423.054554
4440.134005
4402.114626
4438.044717
4472.173457
4390.265220
4569.120387
4473.242762
4475.997848
4473.660221
4471.076008
4555.683444
4466.966706
4437.351298
4467.015040
4445.803498
4482.062162
4471.817256
4438.159038
4431.861213
4454.769886
4428.942707
4452.847811
4416.487010
4423.675930
4430.459739
4412.122658
4448.824350
4432.070918
4424.692657
4413.706655
4426.634483
4427.998342
4422.998513
4418.425257
4458.994692
4393.410984
4414.651173
4419.575859
4498.832653
4469.270307
4504.756308
4491.632747
4485.183111
4494.508541
4447.488785
4463.076292
4446.388620
4364.869274
4410.050388
4464.903684
4430.966928
4440.681349
4460.000651
4418.422657
4443.560807
4413.978428
4422.877985
4416.864007
4420.316146
4418.423414
4430.575274
4435.664437
4421.155604
4402.799454
4429.776040
4381.061131
4430.106374
4346.855873
4339.673160
4522.624892
4406.962826
4487.248750
4467.148879
4473.263226
4469.216981
4454.768050
4490.785653
4476.400228
4451.396996
4426.459001
4439.720523
4417.751880
4446.098502
4414.533686
4470.416989
4429.385524
4456.266174
4419.989288
4420.063010
4422.705910
4447.528866
4442.751413
4433.113547
4414.229018
4431.425206
4430.738286
4402.413024
4447.536966
4477.649242
4477.055660
4490.668978
4405.693753
4476.948212
4469.134748
4480.375363
4487.929044
4466.156032
4450.679153
4456.456686
4419.304519
4447.349187
4433.666288
4386.537619
4410.133942
4439.892628
4487.099917
4416.455601
4462.770673
4408.552991
4418.464482
4425.443897
4421.878850
4402.693059
4425.379631
4424.504604
4425.373990
4426.376129
4426.517303
4427.211896
4427.393766
4427.972171
4428.109603
4428.677425
4428.725724
4429.074617
4429.102427
4429.606911
4408.790074
4422.768286
4422.463604
4423.918383
4425.020990
4425.379238
4426.386757
4426.455475
4427.327769
4427.360915
4428.195860
4428.182355
4428.638127
4428.551027
4431.401734
4413.874876
4422.962949
4421.982236
4423.687560
4424.982062
4425.031823
4426.323991
4426.167622
4427.439912
4427.040583
4428.280879
4427.693488
4428.765333
4428.523174
4429.975765
4416.650529
4423.952193
4422.815504
4424.291125
4424.908713
4425.504371
4426.330093
4426.402643
4427.294977
4427.185083
4428.093549
4427.827694
4429.088521
4428.327814
4431.319154
4419.641967
4424.525196
4423.778672
4424.571243
4425.291664
4425.634622
4426.312224
4426.585504
4427.287542
4427.309485
4428.102461
4427.762400
4428.968451
4428.041718
4430.888499
4420.998686
4425.261836
4424.556243
4424.955865
4425.876488
4425.750239
4426.851493
4426.555414
4427.567905
4427.234781
4428.211066
4427.879071
4428.724142
4427.647787
4430.350481
4422.332273
4425.844429
4425.158538
4425.506317
4426.095106
4426.091670
4426.886648
4426.754922
4427.680112
4427.434380
4428.255023
4427.844850
4428.598453
4427.228485
4428.834172
4423.382084
4426.399047
4425.678652
4425.992651
4426.464751
4426.538521
4427.082973
4427.172288
4427.686847
4427.632613
4428.394684
4427.938899
4428.970896
4427.375131
4428.406804
4424.180190
4426.846988
4426.121282
4426.411986
4426.735355
4426.727673
4427.325705
4427.197337
4427.952021
4427.871756
4428.466019
4428.445688
4429.053301
4428.458958
4429.601821
4425.079314
4427.263614
4426.491343
4426.878453
4426.973156
4427.254881
4427.381959
4427.766640
4427.883921
4428.186220
4428.564212
4428.833614
4429.455774
4429.138538
4430.421716
4425.496110
4427.617079
4426.787516
4427.244963
4427.124581
4427.463376
4427.521657
4427.831991
4428.012413
4428.437045
4428.661186
4428.997218
4429.728479
4429.744359
4430.575660
4426.101784
4427.848146
4427.137250
4427.440941
4427.552728
4427.597088
4427.911908
4427.910490
4428.382899
4428.254956
4428.940633
4429.030547
4429.796558
4429.896157
4430.623785
4426.639744
4427.923863
4427.630820
4427.543905
4427.775582
4427.722811
4427.998788
4428.029238
4428.310097
4428.551014
4428.856672
4428.935817
4429.752849
4429.904534
4430.720257
4443.945043
4425.750611
4428.258588
4448.447568
4404.525782
4467.213128
4503.646514
4467.120630
4471.885422
4467.057308
4474.913621
4470.022804
4453.024471
4434.151408
4423.181177
4406.369985
4426.964842
4428.204099
4427.714937
4427.847640
4427.984226
4427.932867
4428.202777
4428.167113
4428.530185
4428.392574
4428.787441
4428.986991
4429.155390
4429.562951
4431.362050
4435.918623
4436.299293
4430.800606
4420.920271
4457.651870
4457.813017
4477.690092
4462.301069
4470.179069
4429.555620
4458.018544
4453.121594
4473.929309
4442.334191
4379.239821
4410.538188
4427.081694
4428.333837
4427.971808
4427.978779
4428.114453
4428.007544
4428.339140
4428.075287
4428.580261
4428.270607
4429.095891
4428.258898
4429.566263
4428.540327
4429.015686
4443.988873
4426.428148
4415.769288
4427.704406
4426.660659
4413.130941
4494.200153
4455.487900
4464.854630
4457.457351
4452.068062
4410.851016
4418.169373
4454.771064
4374.749204
4414.486254
4427.357925
4428.495772
4428.149867
4428.100471
4428.387777
4428.144597
4428.445917
4428.302533
4428.637399
4428.322111
4428.800796
4428.340436
4429.379601
4427.461447
4431.362817
4420.414072
4408.617417
4428.221608
4427.131224
4434.975787
4476.868457
4458.585485
4463.060340
4465.961731
4460.238605
4457.572153
4462.208282
4430.447572
4391.271824
4419.799325
4406.139175
4427.566662
4428.675165
4428.252250
4428.413068
4428.314826
4428.317768
4428.486172
4428.273741
4428.482473
4428.422879
4428.455923
4428.286844
4427.974764
4427.611378
4426.621294
4427.357142
4419.787359
4430.104662
4440.060621
4418.802988
4418.931518
4447.095270
4433.085189
4445.136893
4462.063725
4462.547057
4480.621442
4411.881615
4362.427145
4400.767585
4412.879349
4427.802073
4428.901054
4428.312087
4428.632478
4428.366015
4428.700149
4428.312945
4428.721397
4428.467222
4428.420325
4428.388961
4427.716306
4428.351457
4426.635995
4424.002988
4433.530037
4436.058670
4394.100552
4417.234064
4435.024988
4451.172618
4453.817825
4460.206721
4471.258817
4430.921004
4441.961235
4466.948543
4456.802350
4427.662897
4441.462997
4418.894728
4427.947297
4429.059793
4428.422677
4428.874394
4428.391119
4428.751741
4428.424736
4428.758684
4428.197496
4428.921925
4427.785924
4428.828969
4426.204793
4428.090862
4426.309858
4446.415145
4411.873573
4425.369707
4455.737647
4463.268977
4459.165528
4428.828487
4432.222723
4431.196979
4494.128419
4478.406277
4462.218405
4454.665961
4445.608607
4471.829957
4443.148261
4428.086865
4429.228768
4428.490475
4429.028713
4428.489963
4429.035210
4428.471532
4428.943848
4428.541063
4428.666297
4428.366817
4428.152316
4428.523039
4428.078876
4426.824037
4409.534130
4443.471446
4426.894892
4409.479797
4456.679689
4436.151303
4470.649349
4431.952945
4428.013559
4464.234196
4459.209582
4476.674251
4450.419520
4480.791445
4448.449240
4418.418715
4428.254987
4429.186956
4428.813866
4428.973886
4428.814546
4428.893636
4428.807848
4428.857725
4428.779146
4428.710413
4428.820756
4428.657707
4428.093899
4428.595905
4430.158314
4463.165627
4430.134972
4431.981486
4422.578489
4448.429534
4418.402812
4456.018305
4459.672522
4440.303151
4461.719083
4453.144539
4447.207247
4477.371371
4468.590410
4452.611568
4404.360894
4428.470941
4429.228227
4429.041247
4429.029711
4429.072057
4428.978228
4429.100314
4428.938331
4428.991459
4429.019065
4428.664468
4428.756278
4429.126014
4429.216065
4429.140983
4412.396202
4417.284678
4447.441218
4407.385779
4428.846464
4403.538882
4453.336835
4461.556464
4461.432917
4430.216934
4453.233263
4464.220661
4463.629554
4491.263279
4385.021794
4453.045398
4428.653134
4429.345883
4429.177046
4429.206426
4429.125581
4429.217513
4429.056489
4429.204488
4429.129655
4428.923462
4429.276351
4429.115248
4428.268887
4429.048565
4428.797833
4426.170529
4428.776799
4441.720221
4466.099969
4453.835790
4432.409666
4435.760677
4395.103729
4454.511717
4414.189355
4456.557017
4447.157575
4449.937684
4478.126151
4460.135403
4428.127344
4428.789693
4429.452275
4429.307478
4429.300341
4429.383251
4429.230057
4429.451468
4429.228530
4429.281270
4429.494105
4428.978337
4429.265857
4429.268703
4428.759106
4429.449520
4424.261410
4436.008356
4391.971331
4429.190092
4440.432371
4409.612412
4431.263201
4440.897250
4407.510882
4400.599110
4431.301011
4454.983553
4475.439156
4444.744303
4421.370869
4403.715787
4429.027729
4429.535110
4429.553549
4429.416328
4429.531570
4429.422055
4429.473391
4429.430417
4429.598897
4429.223398
4429.834517
4429.339521
4429.339030
4429.375474
4429.138872
4423.066525
4432.335558
4430.489935
4411.521003
4426.672722
4445.197787
4424.409875
4447.864373
4450.256024
4451.862907
4449.891283
4440.793405
4473.792789
4463.417658
4442.774077
4448.081671
4429.211098
4429.717695
4429.610836
4429.660232
4429.643259
4429.602547
4429.757057
4429.540117
4429.802898
4429.663596
4429.770249
4429.588297
4430.175101
4429.817863
4430.348250
4430.537561
4437.376502
4427.020488
4411.945166
4435.603342
4444.239902
4445.400398
4427.194148
4448.307957
4424.209311
4433.603445
4453.457513
4487.345477
4462.393038
4464.812431
4462.033025
4429.501593
4429.842601
4429.816912
4429.761470
4429.863825
4429.780703
4429.782483
4429.928696
4429.710665
4430.035508
4429.690778
4430.298384
4429.710765
4430.897117
4433.041111
4423.931768
4428.764703
4402.664262
4430.607248
4414.158658
4438.882479
4426.572981
4427.071685
4440.881289
4465.883376
4464.359721
4448.661947
4441.101145
4435.975329
4464.779577
4478.288640
4429.697953
4429.942048
4430.024933
4430.028120
4429.959333
4430.040005
4430.008783
4429.958786
4430.161330
4429.853539
4430.449866
4429.750579
4431.002839
4430.847401
4430.563767
4438.734466
4401.059414
4436.982667
4406.271846
4387.670390
4424.518862
4395.494041
4426.758318
4424.673712
4463.580202
4461.202381
4461.281681
4427.176785
4465.374242
4442.811157
4463.905291
4430.063990
4430.029424
4430.332035
4429.927150
4430.473031
4429.874247
4430.501762
4429.904813
4430.482860
4430.056305
4430.409572
4430.438374
4430.451889
4430.338782
4433.415036
4428.645989
4441.881562
4459.283517
4438.492009
4426.025717
4431.955638
4444.643826
4412.155416
4405.937676
4449.217797
4425.678130
4426.026437
4464.711377
4446.011791
4435.977862
4458.697907
4430.335275
4430.088740
4430.653996
4430.133903
4430.655002
4430.162202
4430.588995
4430.253054
4430.507383
4430.279271
4430.506102
4430.197832
4430.569080
4429.833136
4431.398974
4425.502931
4419.872212
4430.509560
4424.759634
4413.120010
4432.311888
4434.866967
4430.653125
4464.853864
4469.533448
4409.649259
4438.825930
4425.099522
4443.325931
4459.288267
4458.683836
4430.694916
4430.490133
4430.570405
4430.671449
4430.470783
4430.703473
4430.510367
4430.580775
4430.616108
4430.433115
4430.787153
4430.143443
4430.752335
4430.077525
4429.233945
4417.119472
4439.175815
4392.161598
4440.033687
4422.397441
4430.549205
4442.931366
4422.161903
4431.533801
4449.770468
4466.238438
4468.522595
4465.601399
4464.230849
4456.320562
4454.705194
4430.883859
4430.719198
4430.695431
4430.840188
4430.795995
4430.807782
4430.771355
4430.868051
4430.718715
4430.886069
4430.463488
4431.043969
4429.756254
4430.341570
4431.345509
4435.942557
4441.026368
4422.161920
4425.514645
4439.131216
4450.893689
4433.702401
4427.024452
4454.280307
4437.596161
4454.208111
4461.235302
4463.180905
4466.190362
4465.089459
4452.413835
4431.282794
4430.727726
4431.141689
4430.890341
4431.069935
4430.976462
4431.054881
4431.031015
4430.984184
4431.048183
4431.039312
4430.578909
4431.100792
4430.595236
4429.871641
4419.855775
4451.386321
4425.815519
4429.411484
4429.486028
4408.812820
4431.689268
4443.284637
4438.066993
4404.744753
4419.299124
4462.299335
4454.591273
4452.503911
4461.166350
4450.457177
4431.692574
4430.965751
4431.238364
4431.256708
4431.223542
4431.268560
4431.269694
4431.219535
4431.427925
4430.998444
4431.346823
4431.154928
4430.958673
4430.363987
4430.553418
4431.784050
4435.856748
4415.436765
4442.941954
4439.649180
4448.953753
4448.676838
4460.467362
4410.294708
4447.570759
4446.238982
4441.351937
4450.981178
4445.381347
4458.479959
4453.134027
4431.975742
4431.225797
4431.368671
4431.474864
4431.367272
4431.554950
4431.411629
4431.666690
4431.302576
4431.869199
4431.355265
4431.563871
4431.303329
4431.058695
4430.833923
4441.460565
4427.263495
4444.641903
4415.322978
4461.916149
4455.562563
4432.449890
4457.918571
4474.035935
4426.251898
4433.839167
4452.227721
4444.328200
4440.282632
4468.175725
4454.045884