# vtk DataFile Version 2.0
mfree iwf
ASCII

DATASET UNSTRUCTURED_GRID
POINTS 11562 float
-0.000000 0.000445 0.000000
-0.000000 0.000450 0.000000
-0.000000 0.000455 0.000000
-0.000000 0.000460 0.000000
-0.000000 0.000465 0.000000
-0.000000 0.000470 0.000000
-0.000000 0.000475 0.000000
-0.000000 0.000480 0.000000
0.000000 0.000485 0.000000
0.000000 0.000490 0.000000
-0.000000 0.000496 0.000000
0.000002 0.000500 0.000000
0.001080 0.000990 0.000000
0.001089 0.000989 0.000000
0.001134 0.000974 0.000000
0.001138 0.000971 0.000000
0.001138 0.000971 0.000000
0.001145 0.000968 0.000000
0.001151 0.000965 0.000000
0.001147 0.000967 0.000000
0.001160 0.000961 0.000000
0.001185 0.000949 0.000000
0.001190 0.000944 0.000000
0.001193 0.000941 0.000000
0.001196 0.000937 0.000000
0.001199 0.000934 0.000000
0.001203 0.000930 0.000000
0.001206 0.000926 0.000000
0.001208 0.000923 0.000000
0.001213 0.000918 0.000000
0.001217 0.000914 0.000000
0.001236 0.000902 0.000000
0.000005 0.000445 0.000000
0.000005 0.000450 0.000000
0.000005 0.000455 0.000000
0.000005 0.000460 0.000000
0.000005 0.000465 0.000000
0.000005 0.000470 0.000000
0.000005 0.000475 0.000000
0.000005 0.000480 0.000000
0.000005 0.000485 0.000000
0.000006 0.000490 0.000000
0.000003 0.000496 0.000000
0.000006 0.000499 0.000000
0.001129 0.000974 0.000000
0.001133 0.000965 0.000000
0.001166 0.000956 0.000000
0.001172 0.000953 0.000000
0.001177 0.000951 0.000000
0.001180 0.000949 0.000000
0.001181 0.000947 0.000000
0.001184 0.000943 0.000000
0.001187 0.000940 0.000000
0.001192 0.000935 0.000000
0.001197 0.000929 0.000000
0.001201 0.000925 0.000000
0.001204 0.000920 0.000000
0.001211 0.000914 0.000000
0.001214 0.000910 0.000000
0.001218 0.000907 0.000000
0.001228 0.000903 0.000000
0.001230 0.000901 0.000000
0.001225 0.000905 0.000000
0.001234 0.000900 0.000000
0.000010 0.000445 0.000000
0.000010 0.000450 0.000000
0.000010 0.000456 0.000000
0.000010 0.000460 0.000000
0.000010 0.000465 0.000000
0.000010 0.000469 0.000000
0.000009 0.000475 0.000000
0.000011 0.000480 0.000000
0.000009 0.000486 0.000000
0.000012 0.000489 0.000000
0.000008 0.000497 0.000000
0.000011 0.000498 0.000000
0.001128 0.000970 0.000000
0.001136 0.000963 0.000000
0.001152 0.000960 0.000000
0.001159 0.000958 0.000000
0.001163 0.000956 0.000000
0.001168 0.000954 0.000000
0.001158 0.000951 0.000000
0.001167 0.000947 0.000000
0.001172 0.000946 0.000000
0.001177 0.000942 0.000000
0.001186 0.000936 0.000000
0.001191 0.000932 0.000000
0.001190 0.000925 0.000000
0.001195 0.000922 0.000000
0.001199 0.000922 0.000000
0.001208 0.000915 0.000000
0.001220 0.000905 0.000000
0.001222 0.000903 0.000000
0.001227 0.000897 0.000000
0.001228 0.000892 0.000000
0.000014 0.000445 0.000000
0.000016 0.000450 0.000000
0.000014 0.000455 0.000000
0.000018 0.000460 0.000000
0.000015 0.000470 0.000000
0.000015 0.000464 0.000000
0.000014 0.000476 0.000000
0.000017 0.000480 0.000000
0.000014 0.000485 0.000000
0.000016 0.000489 0.000000
0.000014 0.000495 0.000000
0.000016 0.000498 0.000000
0.000025 0.000500 0.000000
0.001139 0.000964 0.000000
0.001154 0.000958 0.000000
0.001149 0.000955 0.000000
0.001162 0.000949 0.000000
0.001172 0.000951 0.000000
0.001173 0.000941 0.000000
0.001180 0.000937 0.000000
0.001176 0.000935 0.000000
0.001182 0.000933 0.000000
0.001190 0.000920 0.000000
0.001193 0.000929 0.000000
0.001199 0.000915 0.000000
0.001204 0.000915 0.000000
0.001204 0.000910 0.000000
0.001208 0.000909 0.000000
0.001213 0.000904 0.000000
0.001217 0.000901 0.000000
0.001219 0.000897 0.000000
0.001227 0.000889 0.000000
0.000019 0.000445 0.000000
0.000021 0.000450 0.000000
0.000018 0.000455 0.000000
0.000022 0.000458 0.000000
0.000018 0.000467 0.000000
0.000025 0.000468 0.000000
0.000018 0.000475 0.000000
0.000022 0.000479 0.000000
0.000019 0.000486 0.000000
0.000021 0.000491 0.000000
0.000020 0.000497 0.000000
0.000022 0.000499 0.000000
0.000039 0.000500 0.000000
0.001135 0.000953 0.000000
0.001143 0.000957 0.000000
0.001149 0.000949 0.000000
0.001155 0.000954 0.000000
0.001165 0.000943 0.000000
0.001164 0.000939 0.000000
0.001177 0.000932 0.000000
0.001168 0.000936 0.000000
0.001180 0.000927 0.000000
0.001180 0.000919 0.000000
0.001184 0.000914 0.000000
0.001190 0.000913 0.000000
0.001199 0.000909 0.000000
0.001203 0.000900 0.000000
0.001209 0.000900 0.000000
0.001213 0.000897 0.000000
0.001220 0.000892 0.000000
0.001223 0.000894 0.000000
0.001223 0.000886 0.000000
0.000024 0.000445 0.000000
0.000026 0.000450 0.000000
0.000025 0.000456 0.000000
0.000025 0.000461 0.000000
0.000021 0.000466 0.000000
0.000025 0.000473 0.000000
0.000023 0.000476 0.000000
0.000027 0.000481 0.000000
0.000023 0.000485 0.000000
0.000026 0.000488 0.000000
0.000026 0.000493 0.000000
0.000027 0.000500 0.000000
0.001109 0.000983 0.000000
0.001142 0.000961 0.000000
0.001147 0.000960 0.000000
0.001160 0.000945 0.000000
0.001152 0.000944 0.000000
0.001172 0.000940 0.000000
0.001170 0.000932 0.000000
0.001160 0.000939 0.000000
0.001167 0.000927 0.000000
0.001185 0.000929 0.000000
0.001183 0.000922 0.000000
0.001185 0.000925 0.000000
0.001195 0.000918 0.000000
0.001196 0.000912 0.000000
0.001207 0.000904 0.000000
0.001202 0.000905 0.000000
0.001215 0.000893 0.000000
0.001208 0.000895 0.000000
0.001217 0.000889 0.000000
0.001219 0.000882 0.000000
0.000030 0.000445 0.000000
0.000030 0.000450 0.000000
0.000029 0.000455 0.000000
0.000030 0.000460 0.000000
0.000032 0.000464 0.000000
0.000027 0.000468 0.000000
0.000031 0.000472 0.000000
0.000031 0.000477 0.000000
0.000031 0.000486 0.000000
0.000031 0.000492 0.000000
0.000033 0.000497 0.000000
0.000030 0.000499 0.000000
0.000048 0.000500 0.000000
0.001132 0.000959 0.000000
0.001144 0.000948 0.000000
0.001154 0.000948 0.000000
0.001150 0.000945 0.000000
0.001157 0.000942 0.000000
0.001162 0.000930 0.000000
0.001174 0.000920 0.000000
0.001174 0.000928 0.000000
0.001178 0.000923 0.000000
0.001187 0.000917 0.000000
0.001189 0.000904 0.000000
0.001192 0.000909 0.000000
0.001195 0.000905 0.000000
0.001199 0.000896 0.000000
0.001199 0.000902 0.000000
0.001205 0.000890 0.000000
0.001211 0.000891 0.000000
0.001215 0.000885 0.000000
0.001216 0.000879 0.000000
0.000035 0.000445 0.000000
0.000035 0.000450 0.000000
0.000034 0.000456 0.000000
0.000038 0.000454 0.000000
0.000035 0.000468 0.000000
0.000036 0.000472 0.000000
0.000031 0.000478 0.000000
0.000041 0.000478 0.000000
0.000034 0.000483 0.000000
0.000034 0.000488 0.000000
0.000037 0.000491 0.000000
0.000036 0.000498 0.000000
0.001067 0.000990 0.000000
0.001105 0.000984 0.000000
0.001140 0.000951 0.000000
0.001144 0.000942 0.000000
0.001157 0.000934 0.000000
0.001149 0.000932 0.000000
0.001165 0.000933 0.000000
0.001163 0.000926 0.000000
0.001171 0.000924 0.000000
0.001162 0.000917 0.000000
0.001171 0.000910 0.000000
0.001184 0.000905 0.000000
0.001186 0.000909 0.000000
0.001191 0.000901 0.000000
0.001203 0.000894 0.000000
0.001194 0.000884 0.000000
0.001206 0.000886 0.000000
0.001208 0.000885 0.000000
0.001212 0.000881 0.000000
0.001212 0.000875 0.000000
0.000040 0.000445 0.000000
0.000041 0.000450 0.000000
0.000036 0.000461 0.000000
0.000040 0.000459 0.000000
0.000042 0.000463 0.000000
0.000039 0.000467 0.000000
0.000041 0.000473 0.000000
0.000037 0.000478 0.000000
0.000041 0.000487 0.000000
0.000042 0.000491 0.000000
0.000041 0.000497 0.000000
0.000044 0.000498 0.000000
0.000918 0.000944 0.000000
0.001128 0.000967 0.000000
0.001131 0.000955 0.000000
0.001140 0.000938 0.000000
0.001154 0.000938 0.000000
0.001158 0.000929 0.000000
0.001153 0.000933 0.000000
0.001168 0.000921 0.000000
0.001174 0.000914 0.000000
0.001179 0.000914 0.000000
0.001171 0.000916 0.000000
0.001175 0.000901 0.000000
0.001184 0.000899 0.000000
0.001190 0.000895 0.000000
0.001194 0.000899 0.000000
0.001194 0.000893 0.000000
0.001199 0.000891 0.000000
0.001201 0.000882 0.000000
0.001208 0.000878 0.000000
0.001209 0.000872 0.000000
0.000044 0.000445 0.000000
0.000046 0.000450 0.000000
0.000044 0.000454 0.000000
0.000046 0.000460 0.000000
0.000044 0.000468 0.000000
0.000046 0.000474 0.000000
0.000045 0.000479 0.000000
0.000040 0.000483 0.000000
0.000051 0.000485 0.000000
0.000045 0.000483 0.000000
0.000048 0.000493 0.000000
0.000050 0.000498 0.000000
0.000924 0.000948 0.000000
0.001124 0.000976 0.000000
0.001145 0.000953 0.000000
0.001148 0.000938 0.000000
0.001145 0.000936 0.000000
0.001157 0.000924 0.000000
0.001158 0.000921 0.000000
0.001164 0.000920 0.000000
0.001165 0.000910 0.000000
0.001176 0.000908 0.000000
0.001180 0.000910 0.000000
0.001185 0.000895 0.000000
0.001180 0.000898 0.000000
0.001186 0.000891 0.000000
0.001194 0.000889 0.000000
0.001199 0.000886 0.000000
0.001196 0.000881 0.000000
0.001202 0.000879 0.000000
0.001204 0.000875 0.000000
0.001205 0.000869 0.000000
0.000049 0.000445 0.000000
0.000052 0.000450 0.000000
0.000049 0.000455 0.000000
0.000053 0.000454 0.000000
0.000048 0.000464 0.000000
0.000049 0.000471 0.000000
0.000053 0.000468 0.000000
0.000051 0.000477 0.000000
0.000047 0.000488 0.000000
0.000052 0.000491 0.000000
0.000057 0.000492 0.000000
0.000053 0.000498 0.000000
0.001010 0.000985 0.000000
0.001116 0.000973 0.000000
0.001126 0.000962 0.000000
0.001139 0.000942 0.000000
0.001144 0.000930 0.000000
0.001152 0.000927 0.000000
0.001147 0.000924 0.000000
0.001153 0.000921 0.000000
0.001160 0.000911 0.000000
0.001166 0.000914 0.000000
0.001163 0.000907 0.000000
0.001174 0.000905 0.000000
0.001176 0.000892 0.000000
0.001180 0.000903 0.000000
0.001185 0.000887 0.000000
0.001188 0.000880 0.000000
0.001189 0.000886 0.000000
0.001197 0.000874 0.000000
0.001200 0.000871 0.000000
0.001202 0.000866 0.000000
0.000054 0.000445 0.000000
0.000058 0.000450 0.000000
0.000053 0.000459 0.000000
0.000051 0.000462 0.000000
0.000060 0.000466 0.000000
0.000053 0.000473 0.000000
0.000058 0.000476 0.000000
0.000056 0.000481 0.000000
0.000052 0.000483 0.000000
0.000056 0.000486 0.000000
0.000056 0.000497 0.000000
0.000059 0.000496 0.000000
0.001033 0.000988 0.000000
0.001124 0.000977 0.000000
[...]
POINT_DATA 11562
SCALARS density float 1
LOOKUP_TABLE default
4428.970088
4435.860701
4428.264097
4418.137353
4425.383454
4425.540707
4429.760412
4435.035130
4430.167768
4421.436443
4433.288327
4401.553177
4428.434557
4418.724560
4418.106646
4444.507632
4445.741413
4441.044326
4446.354061
4453.707601
4425.263520
4427.246474
4397.565624
4430.208430
4426.008778
4421.480523
4453.256795
4418.464621
4412.988091
4447.424626
4422.437573
4400.684503
4432.210349
4421.531911
4414.615574
4440.550243
4450.188474
4425.621033
4427.688429
4423.656745
4412.431374
4428.100446
4454.824636
4407.224960
4412.701390
4402.922240
4419.566230
4411.315429
4422.779217
4429.399825
4443.303646
4455.363773
4452.122046
4435.128723
4408.904119
4399.919517
4443.487599
4394.935303
4432.157343
4458.794358
4422.440429
4432.593531
4406.145906
4401.928700
4419.562769
4429.885723
4458.605259
4419.003029
4397.331780
4412.439615
4448.500125
4381.369210
4476.961723
4370.817121
4451.221902
4400.333925
4461.327121
4468.799768
4431.956245
4398.858154
4417.030137
4415.067043
4461.879420
4447.480818
4415.004086
4391.404102
4413.464845
4435.713449
4398.029353
4452.568969
4437.960488
4396.487481
4419.474125
4426.747670
4452.444397
4405.176217
4421.513149
4436.614371
4429.804616
4417.022107
4425.087740
4462.966126
4476.595233
4382.426294
4481.158695
4381.872169
4517.444163
4397.691871
4436.487993
4366.770294
4424.327381
4441.289627
4471.753820
4450.174995
4443.511277
4384.435246
4428.958243
4428.291727
4440.117607
4440.648670
4391.068814
4479.354721
4423.034162
4474.462800
4442.276443
4365.052099
4498.664995
4442.414563
4444.367766
4433.362008
4429.969154
4451.905207
4436.554355
4446.744256
4404.484420
4460.656894
4470.959373
4377.646427
4466.107606
4434.432013
4416.835803
4410.399756
4477.643157
4416.161673
4469.879528
4393.141546
4457.522008
4443.964450
4415.306625
4394.642699
4432.111839
4427.525415
4424.781512
4436.280759
4423.261807
4461.561684
4459.551892
4386.341959
4401.142838
4420.014477
4431.716334
4444.748859
4430.931929
4401.385249
4412.793012
4409.640897
4477.580732
4356.935391
4426.698891
4476.862504
4410.905061
4425.341366
4438.819975
4413.571946
4392.843577
4397.033013
4449.109258
4459.284288
4401.080973
4421.050148
4461.685907
4446.428884
4436.307428
4454.315125
4439.830026
4466.545184
4385.369697
4436.972759
4407.958598
4417.343274
4489.477716
4412.724411
4419.934133
4433.798032
4414.505017
4451.407078
4407.414528
4468.050056
4382.213015
4462.902306
4453.699475
4409.527407
4458.355480
4418.706487
4425.109274
4441.465122
4462.437233
4391.803447
4437.500930
4476.143442
4424.765390
4426.297800
4441.868914
4437.564103
4412.482833
4445.896507
4427.677691
4387.593351
4402.643469
4453.143278
4421.910162
4389.166563
4404.886109
4444.554574
4431.108072
4416.305944
4452.364390
4425.017558
4445.788238
4432.657152
4452.815488
4432.029110
4394.028495
4430.808590
4413.446828
4445.507778
4414.461047
4421.611155
4405.014629
4404.373138
4431.908146
4436.194736
4453.516528
4406.778719
4423.459108
4434.001026
4401.219466
4453.537349
4421.902909
4450.225219
4447.299339
4441.104090
4443.012261
4457.698764
4411.514071
4416.531420
4431.707879
4426.805101
4405.192205
4442.681684
4429.283556
4442.249301
4421.330603
4423.938392
4454.527536
4427.009550
4433.176302
4427.181436
4428.188416
4465.324482
4406.658832
4429.657381
4410.281170
4441.786894
4458.038005
4419.199855
4420.053719
4431.865080
4432.361450
4417.384682
4413.488580
4418.586733
4447.154553
4418.830765
4434.882001
4409.252479
4415.204362
4431.607125
4427.450943
4419.087542
4426.527159
4426.437796
4401.348212
4450.638825
4431.143021
4435.446076
4460.382745
4406.753317
4465.618546
4429.862743
4434.297099
4439.474966
4393.569328
4423.397274
4439.900096
4447.969769
4444.463873
4449.737770
4451.056928
4453.570585
4421.752609
4441.772104
4454.698164
4448.395939
4453.815174
4416.465634
4437.627959
4441.908375
4442.630560
4426.045607
4427.749431
4428.339229
4442.438984
4417.889689
4442.470821
4441.676257
4425.818365
4377.322032
4393.731993
4426.187129
4540.926910
4402.997406
4437.968958
4430.305491
4397.417899
4445.284198
4433.324249
4387.050739
4462.914512
4421.268341
4395.503611
4436.289588
4449.860429
4459.948540
4412.798996
4399.106486
4462.940969
4430.756358
4388.018990
4407.700974
4422.897566
4430.894252
4446.575614
4417.745650
4443.699396
4405.762037
4434.439217
4447.084085
4429.120132
4452.349427
4480.914364
4341.754080
4404.664490
4394.620104
4431.294750
4431.567408
4423.878937
4415.000815
4441.547646
4438.080979
4394.893527
4438.910895
4404.396591
4411.639319
4444.590450
4402.308904
4435.618817
4415.228134
4462.190794
4427.895129
4428.123553
4436.107748
4438.504744
4420.062055
4418.044933
4423.464931
4411.754930
4389.117634
4434.395871
4444.603500
4420.982596
4449.498695
4455.750176
4417.952160
4445.425897
4442.828105
4410.823273
4426.859027
4437.110387
4393.537002
4398.065009
4425.610563
4444.328128
4437.644669
4452.481002
4446.359516
4433.264840
4405.866586
4407.020369
4454.936201
4431.378379
4406.305729
4419.829195
4437.772222
4435.073174
4435.183185
4439.404262
4432.292161
4459.031396
4402.410517
4434.698491
4436.532962
4391.483432
4400.165830
4426.958647
4377.282240
4438.057037
4455.198310
4416.759072
4436.295664
4408.162407
4386.669565
4442.717598
4368.406432
4444.613106
4410.877176
4427.075004
4411.382019
4465.349692
4436.410891
4398.305212
4465.814394
4425.855774
4426.339121
4417.804865
4443.195160
4412.714456
4438.628033
4413.345519
4421.842770
4449.969048
4459.102265
4443.659999
4446.988282
4448.193383
4424.686762
4391.382421
4444.625870
4446.044104
4453.291607
4427.731309
4441.601125
4431.809453
4457.174671
4449.071219
4470.079119
4454.614321
4434.711470
4396.444495
4428.428483
4416.767539
4439.299946
4445.906741
4427.652997
4430.262126
4416.825999
4419.861740
4418.783666
4427.340066
4431.317230
4440.663511
4397.630172
4422.298881
4379.307030
4425.229463
4393.135980
4459.875388
4431.370251
4440.115744
4391.216548
4381.977008
4457.819853
4436.684356
4419.757782
4430.084452
4444.988940
4445.537632
4414.137062
4406.167232
4414.534056
4402.845120
4427.106936
4425.579753
4453.095680
4386.152214
4452.754238
4396.272537
4444.245981
4439.766091
4411.537559
4441.073963
4422.636685
4427.307199
4438.791297
4443.871489
4446.429044
4432.466500
4414.451765
4409.424850
4425.637991
4434.736944
4378.251959
4397.978742
4431.026345
4427.303623
4420.768924
4432.141443
4436.599683
4480.647560
4444.571112
4427.266079
4450.680709
4407.640971
4449.754881
4445.242585
4415.650736
4425.933285
4412.300014
4418.073145
4445.222779
4408.859900
4447.702715
4425.718204
4443.354786
4441.439581
4438.421134
4447.633586
4425.284266
4427.301440
4438.674523
4420.660371
4452.944952
4388.717801
4504.090454
4433.074027
4476.146863
4431.948691
4429.924080
4444.097305
4435.995745
4465.609773
4429.823134
4484.609508
4491.275357
4441.331443
4428.258787
4422.670352
4437.144492
4428.687387
4436.544704
4399.649626
4423.484692
4435.551301
4449.398798
4416.209306
4431.339839
4418.885694
4428.337816
4411.403191
4437.239998
4447.722690
4431.254295
4440.605996
4434.104009
4457.361811
4434.773658
4384.502403
4422.874546
4413.153117
4415.040579
4434.385346
4446.231476
4424.544330
4428.510261
4438.755151
4431.686587
4442.079714
4438.569718
4434.164080
4418.981329
4422.407767
4418.432575
4443.073749
4455.206545
4431.707163
4406.698767
4427.426784
4431.791347
4456.794910
4407.241853
4433.434295
4447.187769
4412.003571
4420.234682
4448.852955
4438.792797
4429.568196
4427.959528
4426.187043
4434.986876
4415.972438
4444.833672
4444.744310
4473.865853
4431.016291
4441.159188
4431.119063
4451.163020
4490.883614
4433.787400
4457.270068
4437.511429
4404.165873
4413.301608
4448.120020
4408.655200
4420.605682
4445.342081
4439.636674
4433.714294
4428.336859
4435.570785
4448.687242
4405.183811
4423.613262
4455.642943
4402.458557
4398.301931
4448.194104
4471.892486
4387.370014
4504.736058
4425.462547
4428.084348
4418.017347
4479.379064
4439.647288
4418.372732
4353.760010
4437.794507
4384.276955
4448.579840
4480.729607
4440.632957
4460.064653
4445.460486
4411.352246
4455.018128
4447.155842
4426.382783
4408.714767
4432.408133
4437.637475
4427.026498
4437.943589
4424.038429
4461.179511
4439.710660
4456.411929
4438.985929
4462.154560
4356.316226
4430.925134
4433.075341
4434.595461
4423.596077
4432.161979
4453.921558
4452.507507
4402.144359
4446.065830
4414.297888
4394.147493
4354.419456
4455.040145
4392.406823
4423.024464
4420.792121
4443.359775
4415.334736
4440.595786
4430.139181
4438.553523
4434.930097
4414.682736
4432.685707
4399.994449
4413.421892
4422.187891
4401.841132
4439.711243
4417.414234
4464.547219
4399.997746
4415.810895
4449.198194
4433.391836
4460.704084
4380.972859
4438.956891
4436.556712
4444.100645
4432.404210
4461.102384
4443.985835
4368.722391
4363.946667
4447.513620
4386.885822
4394.867361
4415.654217
4452.203269
4431.099009
4432.816032
4407.528808
4420.485860
4429.489124
4427.857629
4450.920026
4421.734792
4425.137739
4437.834300
4421.408290
4429.541547
4458.197471
4443.959815
4440.887524
4426.568215
4469.307026
4423.304759
4441.307688
4382.819991
4357.111266
4421.557584
4395.344036
4414.292877
4374.323440
4445.797395
4444.210186
4463.123103
4448.056843
4452.907033
4414.704510
4429.814223
4454.570660
4403.345305
4450.224254
4424.995404
4428.549665
4430.525116
4430.697306
4430.780601
4430.564291
4430.037928
4429.668083
4429.225508
4429.441717
4430.130892
4431.156899
4431.630024
4431.431008
4430.545185
4429.921445
4429.152127
4429.995961
4428.914420
4428.988613
4429.727547
4430.838671
4432.246009
4433.338725
4433.485687
4431.924222
4429.798606
4428.480786
4428.577313
4430.392480
4431.584122
4429.565411
4430.267910
4431.373763
4431.653548
4431.092597
4429.802602
4428.491062
4426.972409
4427.062164
4428.610115
4431.387411
4432.831590
4432.016455
4430.849894
4427.783733
4429.818255
4429.761902
4428.516715
4428.409846
4428.994728
4430.510952
4431.871811
4433.827887
4433.584704
4432.139270
4428.952370
4427.144042
4426.856169
4428.606833
4430.044174
4429.936109
4430.049673
4431.330109
4431.717360
4430.916401
4429.741034
4428.062518
4426.301136
4426.304774
4427.787226
4430.880811
4432.375266
4432.648066
4428.977668
4429.726532
4429.761955
4429.547411
4428.543392
4427.776792
4429.133049
4429.746810
4432.048904
4433.013020
4433.931430
4431.074818
4429.270115
4425.954794
4427.278423
4428.227357
4428.946195
4429.918392
4429.738514
4431.475201
4431.392488
4430.881634
4429.408201
4427.853641
4425.954570
4425.937868
4427.485930
4430.265020
4432.408913
4430.902654
4428.480690
4427.463223
4429.519682
4429.416178
4428.406059
4427.676850
4428.712680
4429.789657
4431.471899
4433.077151
4433.340133
4431.234507
4428.624809
4425.805107
4427.168403
4426.838817
4428.831329
4429.175419
4429.935761
4430.910889
4431.328630
4430.843997
4428.952452
4427.938228
4425.431512
4426.059939
4426.817772
4430.582716
4432.103310
4432.279440
4429.598119
4430.596518
4429.284241
4429.372895
4428.135283
4427.648714
4428.313354
4429.813633
4430.950940
4433.015400
4432.921063
4431.166906
4428.469496
4425.815829
4427.709681
4429.114056
4429.267453
4429.213154
4429.846666
4430.762695
4431.428596
4430.232689
4429.245735
4427.027371
4425.926653
4425.354845
4427.100395
4429.658933
4432.752838
4430.290727
4429.603502
4426.875060
4429.092741
4429.358934
4427.881744
4427.411486
4428.139092
4429.411251
4430.878033
4432.659124
4432.862153
4431.023340
4428.107216
4425.667276
4426.762791
4427.440729
4427.777071
4428.955539
4429.518869
4430.790681
4431.114755
4430.196213
4428.834867
4427.190616
4425.463681
4425.710903
4426.417835
4429.990591
4432.188284
4431.817195
4428.890655
4430.927548
4446.304221
4432.630736
4443.352720
4427.203280
4414.850865
4450.161022
4429.220165
4415.296811
4403.993486
4460.591060
4465.196415
4396.387945
4427.579149
4456.500483
4430.186660
4424.632070
4428.805571
4429.099510
4428.003728
4426.722683
4428.343724
4428.870372
4430.837019
4432.374619
4432.587247
4430.723189
4428.228201
4425.229035
4427.741739
4428.971738
4430.149773
4436.474303
4416.415333
4424.505013
4426.152665
4416.537587
4439.826570
4436.839226
4430.654594
4398.033992
4403.311952
4413.902069
4429.623327
4437.397799
4387.584538
4415.139092
4410.081484
4428.546765
4429.422346
4430.532903
4431.027083
4430.015586
4428.531711
4427.270977
4425.085879
4425.949083
4425.956673
4429.489506
4432.205806
4430.910853
4429.181673
4429.315100
4441.956844
4437.349900
4429.376459
4430.080520
4402.840357
4444.406428
4417.221586
4426.292715
4400.864095
4432.792603
4441.556209
4439.310888
4433.744563
4441.009828
4445.663184
4424.788683
4428.613357
4429.209979
4427.549859
4426.931868
4427.593045
4429.347949
4429.899562
4432.796569
4431.445340
4431.037244
4427.617070
4424.662415
4426.821524
4426.355646
4429.348225
4433.649324
4430.965581
4418.442130
4392.199854
4401.622174
4446.849482
4440.268533
4423.731771
4435.415441
4457.563155
4440.608500
4436.255800
4368.553633
4391.397337
4443.655952
4452.665579
4428.297019
4429.532661
4430.163267
4431.009488
4429.905794
4428.433377
4427.015443
4425.174356
4425.614328
4425.703278
4428.665272
4432.172405
4429.603130
4427.692335
4427.398538
4453.027514
4410.255964
4423.435978
4447.175503
4442.458533
4435.682100
4439.005041
4465.082688
4412.886541
4436.255453
4385.314793
4450.761439
4412.588763
4423.863500
4431.931088
4421.139009
4428.197117
4429.108484
4427.398997
4426.881279
4427.323345
4429.349634
4429.693686
4432.449332
4431.360939
4430.549474
4427.574429
4424.376178
4426.034112
4427.559307
4424.896853
4434.117950
4426.025833
4413.071016
4413.430806
4467.945051
4393.200850
4428.722043
4434.574503
4448.943324
4404.468175
4396.867994
4408.200185
4426.352272
4419.098701
4448.422602
4417.612297
4428.378962
4429.544110
4429.963578
4431.139664
4429.579281
4428.684072
4426.427100
4425.691365
4425.302571
4425.787811
4428.045515
4432.292246
4428.672574
4428.085074
4428.020755
4428.601903
4459.235472
4463.838943
4413.744990
4357.271550
4441.870643
4431.344305
4430.135218
4412.613050
4439.026609
4433.444711
4462.831178
4446.711161
4413.374765
4485.278471
4411.359014
4428.023005
4429.011637
4427.298510
4426.628310
4427.183369
4428.986098
4429.565852
4432.310135
4431.159724
4430.680751
4427.535833
4424.376086
4427.069226
4426.369803
4425.698445
4406.343513
4448.272918
4433.642264
4386.977273
4397.499799
4488.935789
4423.923280
4425.691449
4429.606172
4416.684675
4441.971300
4390.405561
4461.796469
4387.177820
4432.171344
4423.110925
4428.180954
4429.161856
4430.145002
4430.713992
4429.792621
4428.073130
4426.846856
4425.309366
4426.311602
4424.967935
4428.641296
4432.220700
4429.604249
4428.714292
4427.267176
4442.594985
4429.982204
4418.060441
4411.289156
4448.724865
4436.400163
4426.603886
4423.264195
4418.457005
4426.424189
4413.161043
4412.326626
4466.901401
4445.459970
4411.097263
4400.679837
4428.044610
4428.630476
4427.614314
4426.011564
4427.451906
4428.277052
4429.849708
4431.795663
4431.409559
4430.456414
4427.577592
4424.379184
4426.686591
4426.712153
4427.537755
4434.791435
4430.575037
4425.221484
4467.157690
4372.757643
4422.235382
4424.370501
4441.239080
4427.926635
4446.411969
4450.664429
4438.903582
4399.701768
4431.165957
4396.009358
4442.910197
4428.007372
4429.041989
4429.979217
4430.633685
4429.731615
4427.956362
4426.765211
4425.711739
4426.244008
4424.843792
4428.143941
4432.125851
4429.942770
4428.206186
4427.786844
4417.972191
4449.270417
4394.148787
4473.006961
4456.081975
4432.956881
4457.831314
4465.568532
4388.993063
4446.681303
4421.754256
4440.795200
4468.164866
4392.620322
4465.437314
4402.209140
4427.910585
4428.862897
4427.140833
4426.546099
4426.487685
4428.905346
4429.041610
4431.890740
4431.063432
4430.350854
4427.135915
4424.054403
4425.374595
4426.127878
4425.008059
4428.494487
4476.457294
4451.341037
4395.833430
4428.250386
4428.332946
4427.644837
4448.234286
4454.885942
4440.131298
4460.204373
4409.886683
4426.065605
4414.559178
4421.936188
4429.791509
4427.723168
4429.397922
4429.309841
4430.910910
4429.785179
4427.956985
4426.622698
4426.328689
4425.736700
4425.010191
4427.202933
4431.975192
4428.300182
4427.123038
4425.128932
4414.379540
4415.660460
4434.559512
4400.189360
4411.031670
4444.989356
4443.571857
4433.234911
4439.126531
4433.128850
4428.994112
4439.453828
4426.668967
4421.042489
4487.390275
4442.565021
4427.621147
4429.072089
4426.845097
4426.902896
4425.961928
4429.444367
4428.401618
4432.239572
4430.485247
4430.478643
4426.625834
4424.234511
4424.730718
4425.455896
4425.814985
4424.766529
4434.741198
4396.508585
4467.761821
4461.533911
4416.519439
4425.797428
4434.531004
4412.085681
4435.011242
4423.866660
4447.026884
4410.390333
4412.730137
4399.948826
4452.244161
4427.547878
4429.607728
4428.916760
4431.471669
4429.166217
4428.460735
4425.856262
4427.018225
4425.414997
4425.354275
4426.746615
4431.886061
4428.411660
4427.838930
4424.341796
4420.995483
4428.517121
4394.619111
4458.491277
4435.343536
4433.729140
4422.636553
4444.302242
4425.349960
4432.875475
4406.981049
4416.692944
4446.456844
4458.084825
4409.757583
4398.244116
4427.750725
4428.902971
4427.113018
4426.371468
4426.466264
4428.399455
4428.799331
4432.334393
4430.263727
4430.823358
4426.816482
4424.928836
4424.074105
4425.949621
4424.048776
4438.916245
4442.920733
4431.167586
4405.281111
4423.991901
4446.264523
4417.463550
4428.198259
4424.311769
4456.431511
4438.472173
4429.112214
4447.360301
4398.870798
4425.471543
4429.142782
4427.779885
4429.039611
4429.580974
4430.964686
4429.240268
4428.326496
4426.389922
4426.587797
4426.909576
4424.930694
4426.675541
4431.917565
4430.083265
4427.413471
4426.433868
4413.704702
4416.057229
4435.863101
4453.036378
4392.864768
4426.166018
4446.096311
4414.710725
4451.703459
4424.752515
4449.402379
4387.584217
4419.346371
4434.058212
4393.391712
4411.523188
4428.069544
4428.811888
4427.285909
4426.175449
4426.419345
4427.768972
4429.355517
4431.737644
4430.711072
4430.129690
4427.940199
4423.810893
4425.225697
4425.217386
4426.128266
4445.540655
4454.116140
4437.383952
4449.516283
4368.182144
4421.391221
4443.757276
4365.182396
4468.585980
4452.992223
4442.558690
4388.568335
4452.017060
4434.214889
4411.509264
4425.832997
4427.831701
4428.571357
4429.821737
4430.152690
4430.231929
4427.200850
4427.473095
4426.025800
4427.646581
4424.146649
4426.481508
4432.484645
4428.721668
4426.594803
4426.824149
4434.640315
4418.927806
4421.069561
4458.606088
4380.742153
4434.127479
4436.030589
4432.086124
4474.614079
4458.834059
4469.575106
4410.168790
4429.546945
4439.262212
4373.119777
4423.713163
4427.824740
4429.132560
4427.131346
4426.728032
4425.436812
4429.049920
4428.513770
4432.040800
4431.042532
4430.851248
4427.098946
4424.447298
4423.854330
4424.030667
4424.871520
4433.276777
4430.882544
4411.493993
4385.297563
4424.785959
4443.774312
4434.731595
4418.532947
4388.043814
4456.121668
4411.842367
4421.314528
4397.141117
4416.588083
4418.702575
4445.579484
4427.550670
4429.412749
4428.283710
4431.792954
4429.687804
4428.485479
4426.907615
4428.348660
4426.086884
4424.533552
4427.151887
4430.951690
4428.199076
4427.539474
4423.959829
4429.165532
4427.790071
4426.166865
4437.117481
4460.355033
4418.880794
4422.770784
4477.418572
4426.805892
4425.902704
4417.917674
4387.150010
4474.906330
4422.296877
4576.732487
4411.076278
4427.662823
4428.984534
4427.868067
4426.366916
4426.144551
4428.746529
4428.061851
4432.767521
4430.273287
4430.352572
4426.598639
4426.023644
4423.566497
4425.461100
4422.328523
4428.365873
4419.035922
4432.903419
4424.586649
4460.273664
4465.074203
4439.756446
4445.169341
4480.196850
4446.697180
4439.093484
4449.874173
4448.123261
4429.552540
4272.514315
4427.783903
4427.957902
4429.611582
4428.428727
4432.054192
4428.984443
4428.841423
4425.632576
4428.712279
4424.745829
4425.773814
4426.323225
4430.220863
4427.312419
4427.061705
4421.783494
4418.230503
4410.417400
4398.503305
4409.148155
4448.065343
4413.269010
4442.116521
4442.314221
4440.119603
4422.578388
4396.776915
4429.397207
4449.057699
4444.776035
4383.545616
4399.739371